ANIMSTEPS    25
CRYSTAL
PRIMVEC       1
          2.476908242      -0.004064419       0.000000000
         -1.241974011       2.143033251       0.000000000
          0.000000000       0.000000000       6.586784290
PRIMCOORD     1
     4  1
   6    -0.031874     0.018402     1.646696
   6     0.026628     1.410605     1.646696
   6     1.208306     0.728363     4.940088
   6     0.031874    -0.018402     4.940088
PRIMVEC       2
          2.461160077      -0.000278860       0.000000000
         -1.230821539       2.131287719       0.000000000
          0.000000000       0.000000000       6.684036022
PRIMCOORD     2
     4  1
   6    -0.002171     0.001253     1.671009
   6     0.001813     1.419626     1.671009
   6     1.228526     0.711383     5.013027
   6     0.002171    -0.001253     5.013027
PRIMVEC       3
          2.462437648      -0.000519882       0.000000000
         -1.231669055       2.132273618       0.000000000
          0.000000000       0.000000000       6.675426551
PRIMCOORD     3
     4  1
   6    -0.002513     0.001451     1.668857
   6     0.001793     1.420134     1.668857
   6     1.228975     0.711620     5.006570
   6     0.002513    -0.001451     5.006570
PRIMVEC       4
          2.464481762      -0.000905515       0.000000000
         -1.233025080       2.133851056       0.000000000
          0.000000000       0.000000000       6.661651397
PRIMCOORD     4
     4  1
   6    -0.003061     0.001767     1.665413
   6     0.001763     1.420946     1.665413
   6     1.229694     0.712000     4.996239
   6     0.003061    -0.001767     4.996239
PRIMVEC       5
          2.467752345      -0.001522529       0.000000000
         -1.235194722       2.136374956       0.000000000
          0.000000000       0.000000000       6.639611151
PRIMCOORD     5
     4  1
   6    -0.003939     0.002274     1.659903
   6     0.001714     1.422245     1.659903
   6     1.230843     0.712607     4.979708
   6     0.003939    -0.002274     4.979708
PRIMVEC       6
          2.472985276      -0.002509752       0.000000000
         -1.238666147       2.140413197       0.000000000
          0.000000000       0.000000000       6.604346757
PRIMCOORD     6
     4  1
   6    -0.005351     0.003089     1.651087
   6     0.001639     1.424323     1.651087
   6     1.232680     0.713581     4.953260
   6     0.005351    -0.003089     4.953260
PRIMVEC       7
          2.481357967      -0.004089308       0.000000000
         -1.244220428       2.146874382       0.000000000
          0.000000000       0.000000000       6.547923727
PRIMCOORD     7
     4  1
   6    -0.007622     0.004401     1.636981
   6     0.001523     1.427644     1.636981
   6     1.235614     0.715141     4.910943
   6     0.007622    -0.004401     4.910943
PRIMVEC       8
          2.473877684      -0.002678110       0.000000000
         -1.239258153       2.141101865       0.000000000
          0.000000000       0.000000000       6.598332883
PRIMCOORD     8
     4  1
   6    -0.005592     0.003229     1.649583
   6     0.001626     1.424677     1.649583
   6     1.232993     0.713747     4.948750
   6     0.005592    -0.003229     4.948750
PRIMVEC       9
          2.484097991      -0.004291856       0.000000000
         -1.245765852       2.149146037       0.000000000
          0.000000000       0.000000000       6.512525273
PRIMCOORD     9
     4  1
   6     0.003579    -0.002067     1.628131
   6    -0.010928     1.436212     1.628131
   6     1.249260     0.708642     4.884394
   6    -0.003579     0.002067     4.884394
PRIMVEC      10
          2.478533839      -0.003413298       0.000000000
         -1.242222923       2.144766619       0.000000000
          0.000000000       0.000000000       6.559240758
PRIMCOORD    10
     4  1
   6    -0.001424     0.000822     1.639810
   6    -0.004080     1.429924     1.639810
   6     1.240391     0.711429     4.919431
   6     0.001424    -0.000822     4.919431
PRIMVEC      11
          2.476375126      -0.003475261       0.000000000
         -1.241197228       2.142866138       0.000000000
          0.000000000       0.000000000       6.516000693
PRIMCOORD    11
     4  1
   6    -0.001498     0.000865     1.629000
   6    -0.004702     1.428975     1.629000
   6     1.239880     0.710415     4.887001
   6     0.001498    -0.000865     4.887001
PRIMVEC      12
          2.472921187      -0.003574401       0.000000000
         -1.239556116       2.139825368       0.000000000
          0.000000000       0.000000000       6.446816590
PRIMCOORD    12
     4  1
   6    -0.001616     0.000933     1.611704
   6    -0.005696     1.427456     1.611704
   6     1.239061     0.708795     4.835112
   6     0.001616    -0.000933     4.835112
PRIMVEC      13
          2.467394883      -0.003733026       0.000000000
         -1.236930337       2.134960137       0.000000000
          0.000000000       0.000000000       6.336122024
PRIMCOORD    13
     4  1
   6    -0.001805     0.001042     1.584031
   6    -0.007279     1.425021     1.584031
   6     1.237744     0.706206     4.752092
   6     0.001805    -0.001042     4.752092
PRIMVEC      14
          2.460324004      -0.003935985       0.000000000
         -1.233570665       2.128735096       0.000000000
          0.000000000       0.000000000       6.194488859
PRIMCOORD    14
     4  1
   6    -0.002045     0.001181     1.548622
   6    -0.009297     1.421900     1.548622
   6     1.236050     0.702899     4.645867
   6     0.002045    -0.001181     4.645867
PRIMVEC      15
          2.460527946      -0.003930131       0.000000000
         -1.233667566       2.128914642       0.000000000
          0.000000000       0.000000000       6.198573911
PRIMCOORD    15
     4  1
   6    -0.002038     0.001177     1.549643
   6    -0.009239     1.421990     1.549643
   6     1.236099     0.702994     4.648930
   6     0.002038    -0.001177     4.648930
PRIMVEC      16
          2.456353022      -0.004138663       0.000000000
         -1.231760698       2.125194786       0.000000000
          0.000000000       0.000000000       6.056940746
PRIMCOORD    16
     4  1
   6    -0.023390     0.013504     1.514235
   6     0.008403     1.409186     1.514235
   6     1.216190     0.711870     4.542706
   6     0.023390    -0.013504     4.542706
PRIMVEC      17
          2.459949342      -0.003959032       0.000000000
         -1.233403293       2.128399106       0.000000000
          0.000000000       0.000000000       6.178944926
PRIMCOORD    17
     4  1
   6    -0.005002     0.002888     1.544736
   6    -0.006790     1.420214     1.544736
   6     1.233336     0.704226     4.634209
   6     0.005002    -0.002888     4.634209
PRIMVEC      18
          2.461077797      -0.003360260       0.000000000
         -1.233448969       2.129675763       0.000000000
          0.000000000       0.000000000       6.159019849
PRIMCOORD    18
     4  1
   6    -0.006027     0.003480     1.539755
   6    -0.006960     1.421562     1.539755
   6     1.234588     0.704754     4.619265
   6     0.006027    -0.003480     4.619265
PRIMVEC      19
          2.462883326      -0.002402225       0.000000000
         -1.233522051       2.131718414       0.000000000
          0.000000000       0.000000000       6.127139725
PRIMCOORD    19
     4  1
   6    -0.007670     0.004428     1.531785
   6    -0.007231     1.423719     1.531785
   6     1.236593     0.705597     4.595355
   6     0.007670    -0.004428     4.595355
PRIMVEC      20
          2.465772172      -0.000869369       0.000000000
         -1.233638981       2.134986656       0.000000000
          0.000000000       0.000000000       6.076131528
PRIMCOORD    20
     4  1
   6    -0.010301     0.005947     1.519033
   6    -0.007668     1.427172     1.519033
   6     1.239801     0.706945     4.557099
   6     0.010301    -0.005947     4.557099
PRIMVEC      21
          2.470394325       0.001583201       0.000000000
         -1.233826071       2.140215843       0.000000000
          0.000000000       0.000000000       5.994518413
PRIMCOORD    21
     4  1
   6    -0.014520     0.008383     1.498630
   6    -0.008371     1.432699     1.498630
   6     1.244940     0.709100     4.495889
   6     0.014520    -0.008383     4.495889
PRIMVEC      22
          2.466958835      -0.000239711       0.000000000
         -1.233687014       2.136329165       0.000000000
          0.000000000       0.000000000       6.055178678
PRIMCOORD    22
     4  1
   6    -0.011383     0.006572     1.513795
   6    -0.007848     1.428591     1.513795
   6     1.241120     0.707499     4.541384
   6     0.011383    -0.006572     4.541384
PRIMVEC      23
          2.471843584       0.003569675       0.000000000
         -1.232830362       2.142464175       0.000000000
          0.000000000       0.000000000       5.933902414
PRIMCOORD    23
     4  1
   6    -0.003669     0.002118     1.483476
   6    -0.024081     1.444593     1.483476
   6     1.263095     0.701441     4.450427
   6     0.003669    -0.002118     4.450427
PRIMVEC      24
          2.467450561       0.000143763       0.000000000
         -1.233600778       2.136946750       0.000000000
          0.000000000       0.000000000       6.042970321
PRIMCOORD    24
     4  1
   6    -0.010607     0.006124     1.510743
   6    -0.009481     1.430201     1.510743
   6     1.243330     0.706890     4.532228
   6     0.010607    -0.006124     4.532228
PRIMVEC      25
          2.464519858      -0.000480779       0.000000000
         -1.232676295       2.134096415       0.000000000
          0.000000000       0.000000000       6.043562733
PRIMCOORD    25
     4  1
   6    -0.011030     0.006368     1.510891
   6    -0.011101     1.428820     1.510891
   6     1.242945     0.704796     4.532672
   6     0.011030    -0.006368     4.532672
