ATOMS
  27    6.00000011    6.00000011    6.00000011    0.6220    0.6280    0.8430
  27    7.24176814    7.94065215    6.00000011    1.1770    1.0700    0.8980
  27    4.75823209    7.94065215    6.00000011    1.3540    0.7410    1.0070
  27    7.24176814    4.05934808    6.00000011    0.4440    1.0860    1.4230
  27    4.75823209    4.05934808    6.00000011    0.6370    0.7360    1.5460
  27    6.00000011    7.24176814    7.94065215    1.1860    1.1880    0.7810
  27    6.00000011    7.24176814    4.05934808    1.0440    0.4820    1.4290
  27    6.00000011    4.75823209    7.94065215    0.7380    1.3350    1.0180
  27    6.00000011    4.75823209    4.05934808    0.6020    0.6130    1.6410
  27    7.94065215    6.00000011    7.24176814    0.8070    1.3540    0.9490
  27    4.05934808    6.00000011    7.24176814    1.2290    1.0180    0.8930
  27    7.94065215    6.00000011    4.75823209    0.5630    0.8130    1.5400
  27    4.05934808    6.00000011    4.75823209    0.9880    0.4610    1.4830
