BEGIN_INFO
  #  
  #  Band-XCRYSDEN-Structure-File
  #  
  Fermi energy:    -6.3976
END_INFO

BEGIN_BLOCK_BANDGRID_3D
  hcp-Y
  BANDGRID_3D_spin_1
    2
   23   23   19
      0.00000000      0.00000000      0.00000000
      0.94284887      0.54435536     -0.00000069
      0.00000000      1.08871073     -0.00000144
      0.00000002     -0.00000079      0.59741191
  BAND:    9
   -4.80821   -4.85142   -4.96982   -5.13446   -5.30888   -5.45859   -5.55807
   -5.59492   -5.56942   -5.49177   -5.56942   -5.59492   -5.55807   -5.45859
   -5.30888   -5.13446   -4.96982   -4.85142   -4.80821   -4.89543   -4.94267
   -5.06790   -5.23559   -5.40737   -5.55008   -5.64018   -5.66685   -5.63144
   -5.54440   -5.63147   -5.66687   -5.64020   -5.55010   -5.40739   -5.23560
   -5.06789   -4.94257   -4.89543   -5.17913   -5.19072   -5.32163   -5.48962
   -5.65196   -5.77711   -5.84458   -5.84702   -5.78850   -5.68068   -5.78860
   -5.84710   -5.84466   -5.77719   -5.65204   -5.48969   -5.32163   -5.18992
   -5.17913   -5.49406   -5.52669   -5.65648   -5.81569   -5.96157   -6.06244
   -6.10024   -6.07221   -5.98676   -5.85789   -5.98690   -6.07232   -6.10035
   -6.06256   -5.96170   -5.81583   -5.65658   -5.52658   -5.49406   -5.85334
   -5.89930   -6.01563   -6.15724   -6.27981   -6.34957   -6.35153   -6.29005
   -6.17927   -6.03589   -6.17939   -6.29013   -6.35160   -6.34966   -6.27993
   -6.15741   -6.01583   -5.89946   -5.85334   -6.23062   -6.26746   -6.36231
   -6.47758   -6.56761   -6.59626   -6.55590   -6.46120   -6.33084   -6.18232
   -6.33089   -6.46119   -6.55586   -6.59622   -6.56764   -6.47771   -6.36252
   -6.26763   -6.23062   -6.57932   -6.60450   -6.67044   -6.74806   -6.79260
   -6.77154   -6.69025   -6.56952   -6.42728   -6.27961   -6.42727   -6.56941
   -6.69006   -6.77133   -6.79244   -6.74805   -6.67056   -6.60461   -6.57932
   -6.88241   -6.89253   -6.91881   -6.94382   -6.93540   -6.87381   -6.76718
   -6.63191   -6.48318   -6.33670   -6.48312   -6.63174   -6.76691   -6.87348
   -6.93509   -6.94363   -6.91876   -6.89254   -6.88241   -7.12848   -7.11869
   -7.09164   -7.05068   -6.99244   -6.90849   -6.79637   -6.66232   -6.51786
   -6.37881   -6.51780   -6.66215   -6.79610   -6.90816   -6.99209   -7.05039
   -7.09145   -7.11860   -7.12848   -7.30955   -7.27523   -7.18555   -7.07035
   -6.96059   -6.86823   -6.77528   -6.66502   -6.54018   -6.41682   -6.54015
   -6.66490   -6.77509   -6.86800   -6.96034   -7.07010   -7.18532   -7.27508
   -7.30955   -7.42025   -7.36260   -7.21822   -7.03496   -6.86280   -6.76975
   -6.72507   -6.65393   -6.55322   -6.44485   -6.55321   -6.65389   -6.72501
   -6.76972   -6.86275   -7.03484   -7.21807   -7.36249   -7.42025   -7.45747
   -7.38965   -7.22313   -7.00989   -6.78416   -6.67754   -6.69478   -6.64716
   -6.55754   -6.45517   -6.55754   -6.64716   -6.69478   -6.67754   -6.78416
   -7.00989   -7.22313   -7.38965   -7.45747   -7.42025   -7.36249   -7.21807
   -7.03484   -6.86275   -6.76972   -6.72501   -6.65389   -6.55321   -6.44485
   -6.55322   -6.65393   -6.72507   -6.76975   -6.86280   -7.03496   -7.21822
   -7.36260   -7.42025   -7.30955   -7.27508   -7.18532   -7.07010   -6.96034
   -6.86800   -6.77509   -6.66490   -6.54015   -6.41682   -6.54018   -6.66502
   -6.77528   -6.86823   -6.96059   -7.07035   -7.18555   -7.27523   -7.30955
   -7.12848   -7.11860   -7.09145   -7.05039   -6.99209   -6.90816   -6.79610
   -6.66215   -6.51780   -6.37881   -6.51786   -6.66232   -6.79637   -6.90849
   -6.99244   -7.05068   -7.09164   -7.11869   -7.12848   -6.88241   -6.89254
   -6.91876   -6.94363   -6.93509   -6.87348   -6.76691   -6.63174   -6.48312
   -6.33670   -6.48318   -6.63191   -6.76718   -6.87381   -6.93540   -6.94382
   -6.91881   -6.89253   -6.88241   -6.57932   -6.60461   -6.67056   -6.74805
   -6.79244   -6.77133   -6.69006   -6.56941   -6.42727   -6.27961   -6.42728
   -6.56952   -6.69025   -6.77154   -6.79260   -6.74806   -6.67044   -6.60450
   -6.57932   -6.23062   -6.26763   -6.36252   -6.47771   -6.56764   -6.59622
   -6.55586   -6.46119   -6.33089   -6.18232   -6.33084   -6.46120   -6.55590
   -6.59626   -6.56761   -6.47758   -6.36231   -6.26746   -6.23062   -5.85334
   -5.89946   -6.01583   -6.15741   -6.27993   -6.34966   -6.35160   -6.29013
   -6.17939   -6.03589   -6.17927   -6.29005   -6.35153   -6.34957   -6.27981
   -6.15724   -6.01563   -5.89930   -5.85334   -5.49406   -5.52658   -5.65658
   -5.81583   -5.96170   -6.06256   -6.10035   -6.07232   -5.98690   -5.85789
   -5.98676   -6.07221   -6.10024   -6.06244   -5.96157   -5.81569   -5.65648
   -5.52669   -5.49406   -5.17913   -5.18992   -5.32163   -5.48969   -5.65204
   -5.77719   -5.84466   -5.84710   -5.78860   -5.68068   -5.78850   -5.84702
   -5.84458   -5.77711   -5.65196   -5.48962   -5.32163   -5.19072   -5.17913
   -4.89543   -4.94257   -5.06789   -5.23560   -5.40739   -5.55010   -5.64020
   -5.66687   -5.63147   -5.54440   -5.63144   -5.66685   -5.64018   -5.55008
   -5.40737   -5.23559   -5.06790   -4.94267   -4.89543   -4.80821   -4.85142
   -4.96982   -5.13446   -5.30888   -5.45859   -5.55807   -5.59492   -5.56942
   -5.49177   -5.56942   -5.59492   -5.55807   -5.45859   -5.30888   -5.13446
   -4.96982   -4.85142   -4.80821   -4.89544   -4.94258   -5.06790   -5.23560
   -5.40739   -5.55011   -5.64020   -5.66687   -5.63146   -5.54440   -5.63144
   -5.66685   -5.64018   -5.55009   -5.40737   -5.23559   -5.06791   -4.94268
   -4.89544   -5.09882   -5.10984   -5.24209   -5.41119   -5.57694   -5.70762
   -5.78202   -5.79179   -5.74015   -5.63827   -5.74016   -5.79179   -5.78202
   -5.70762   -5.57694   -5.41119   -5.24208   -5.10984   -5.09882   -5.38665
   -5.39783   -5.53086   -5.69515   -5.84813   -5.95855   -6.00760   -5.99076
   -5.91480   -5.79275   -5.91487   -5.99082   -6.00766   -5.95861   -5.84820
   -5.69521   -5.53089   -5.39749   -5.38665   -5.69580   -5.74572   -5.87068
   -6.02206   -6.15582   -6.23928   -6.25617   -6.20785   -6.10625   -5.96715
   -6.10635   -6.20792   -6.25624   -6.23935   -6.15592   -6.02218   -5.87080
   -5.74579   -5.69580   -6.06663   -6.10909   -6.21699   -6.34744   -6.45422
   -6.50179   -6.47916   -6.39718   -6.27342   -6.12554   -6.27349   -6.39721
   -6.47917   -6.50180   -6.45429   -6.34758   -6.21718   -6.10926   -6.06663
   -6.42340   -6.45580   -6.53955   -6.63940   -6.70711   -6.70665   -6.63993
   -6.52784   -6.38939   -6.24137   -6.38940   -6.52777   -6.63980   -6.70652
   -6.70704   -6.63945   -6.53972   -6.45595   -6.42340   -6.74455   -6.76396
   -6.81461   -6.86995   -6.88554   -6.83623   -6.73541   -6.60337   -6.45601
   -6.30878   -6.45596   -6.60322   -6.73518   -6.83594   -6.88527   -6.86983
   -6.81465   -6.76403   -6.74455   -7.01573   -7.01781   -7.02213   -7.01777
   -6.98251   -6.90351   -6.78729   -6.64669   -6.49527   -6.34881   -6.49520
   -6.64651   -6.78700   -6.90315   -6.98214   -7.01749   -7.02199   -7.01776
   -7.01573   -7.22701   -7.20617   -7.15045   -7.07554   -6.99324   -6.90122
   -6.79074   -6.66083   -6.51988   -6.38366   -6.51982   -6.66066   -6.79049
   -6.90090   -6.99291   -7.07524   -7.15021   -7.20603   -7.22701   -7.37148
   -7.32458   -7.20546   -7.05537   -6.91870   -6.82597   -6.74910   -6.65230
   -6.53476   -6.41451   -6.53474   -6.65220   -6.74896   -6.82581   -6.91853
   -7.05517   -7.20525   -7.32443   -7.37148   -7.44476   -7.37863   -7.21655
   -7.01035   -6.80325   -6.71200   -6.69923   -6.63958   -6.54190   -6.43285
   -6.54190   -6.63956   -6.69920   -6.71204   -6.80328   -7.01030   -7.21647
   -7.37856   -7.44476   -7.44477   -7.37856   -7.21647   -7.01029   -6.80327
   -6.71203   -6.69920   -6.63956   -6.54189   -6.43285   -6.54190   -6.63958
   -6.69922   -6.71199   -6.80325   -7.01035   -7.21655   -7.37863   -7.44477
   -7.37148   -7.32443   -7.20525   -7.05517   -6.91852   -6.82580   -6.74895
   -6.65219   -6.53473   -6.41451   -6.53475   -6.65228   -6.74909   -6.82596
   -6.91869   -7.05537   -7.20546   -7.32458   -7.37148   -7.22701   -7.20604
   -7.15022   -7.07523   -6.99290   -6.90089   -6.79048   -6.66065   -6.51981
   -6.38365   -6.51987   -6.66081   -6.79073   -6.90120   -6.99323   -7.07554
   -7.15045   -7.20617   -7.22701   -7.01574   -7.01777   -7.02199   -7.01749
   -6.98214   -6.90314   -6.78699   -6.64649   -6.49518   -6.34880   -6.49526
   -6.64668   -6.78727   -6.90350   -6.98251   -7.01777   -7.02213   -7.01781
   -7.01574   -6.74457   -6.76404   -6.81465   -6.86984   -6.88527   -6.83594
   -6.73517   -6.60321   -6.45595   -6.30877   -6.45600   -6.60336   -6.73540
   -6.83623   -6.88554   -6.86995   -6.81462   -6.76397   -6.74457   -6.42342
   -6.45597   -6.53973   -6.63946   -6.70704   -6.70652   -6.63980   -6.52776
   -6.38939   -6.24136   -6.38939   -6.52783   -6.63992   -6.70665   -6.70711
   -6.63940   -6.53957   -6.45582   -6.42342   -6.06665   -6.10928   -6.21720
   -6.34759   -6.45429   -6.50180   -6.47916   -6.39720   -6.27348   -6.12553
   -6.27341   -6.39718   -6.47916   -6.50179   -6.45423   -6.34745   -6.21701
   -6.10911   -6.06665   -5.69582   -5.74582   -5.87082   -6.02220   -6.15592
   -6.23936   -6.25624   -6.20792   -6.10634   -5.96715   -6.10625   -6.20784
   -6.25617   -6.23928   -6.15582   -6.02207   -5.87069   -5.74574   -5.69582
   -5.38663   -5.39752   -5.53091   -5.69522   -5.84821   -5.95862   -6.00766
   -5.99082   -5.91487   -5.79274   -5.91480   -5.99076   -6.00760   -5.95856
   -5.84814   -5.69516   -5.53088   -5.39786   -5.38663   -5.09880   -5.10986
   -5.24210   -5.41120   -5.57695   -5.70762   -5.78202   -5.79179   -5.74015
   -5.63826   -5.74015   -5.79179   -5.78202   -5.70762   -5.57695   -5.41120
   -5.24210   -5.10986   -5.09880   -4.89544   -4.94269   -5.06792   -5.23560
   -5.40738   -5.55009   -5.64018   -5.66685   -5.63144   -5.54440   -5.63146
   -5.66687   -5.64020   -5.55011   -5.40740   -5.23561   -5.06790   -4.94259
   -4.89544   -4.89544   -4.94258   -5.06790   -5.23560   -5.40739   -5.55011
   -5.64020   -5.66687   -5.63146   -5.54440   -5.63144   -5.66685   -5.64018
   -5.55009   -5.40737   -5.23559   -5.06791   -4.94268   -4.89544   -5.17912
   -5.18994   -5.32165   -5.48971   -5.65205   -5.77720   -5.84466   -5.84710
   -5.78859   -5.68067   -5.78851   -5.84702   -5.84459   -5.77712   -5.65197
   -5.48964   -5.32165   -5.19074   -5.17912   -5.38664   -5.39751   -5.53090
   -5.69522   -5.84821   -5.95862   -6.00766   -5.99082   -5.91487   -5.79275
   -5.91481   -5.99077   -6.00760   -5.95856   -5.84814   -5.69516   -5.53087
   -5.39785   -5.38664   -5.65883   -5.68755   -5.81664   -5.97228   -6.11037
   -6.19868   -6.22071   -6.17695   -6.07865   -5.94120   -6.07866   -6.17696
   -6.22071   -6.19868   -6.11037   -5.97227   -5.81664   -5.68754   -5.65883
   -5.96711   -6.01426   -6.13236   -6.27335   -6.39003   -6.44749   -6.43388
   -6.35849   -6.23825   -6.09084   -6.23828   -6.35851   -6.43389   -6.44750
   -6.39006   -6.27341   -6.13244   -6.01434   -5.96711   -6.30451   -6.34399
   -6.44433   -6.56289   -6.64710   -6.65933   -6.60122   -6.49437   -6.35846
   -6.21103   -6.35846   -6.49433   -6.60115   -6.65927   -6.64708   -6.56295
   -6.44446   -6.34413   -6.30451   -6.62266   -6.65182   -6.72688   -6.81031
   -6.84251   -6.79683   -6.69775   -6.56879   -6.42536   -6.28300   -6.42532
   -6.56867   -6.69757   -6.79661   -6.84229   -6.81024   -6.72697   -6.65193
   -6.62266   -6.90340   -6.91841   -6.95619   -6.98630   -6.96155   -6.87768
   -6.75656   -6.61346   -6.46081   -6.31378   -6.46072   -6.61328   -6.75630
   -6.87735   -6.96117   -6.98602   -6.95612   -6.91843   -6.90340   -7.13376
   -7.12850   -7.11224   -7.07898   -7.01577   -6.91737   -6.78943   -6.64106
   -6.48336   -6.33189   -6.48326   -6.64086   -6.78914   -6.91700   -7.01535
   -7.07860   -7.11199   -7.12839   -7.13376   -7.30450   -7.27210   -7.18900
   -7.08390   -6.98069   -6.88138   -6.77022   -6.63945   -6.49501   -6.35270
   -6.49493   -6.63928   -6.76997   -6.88108   -6.98037   -7.08359   -7.18872
   -7.27192   -7.30450   -7.40933   -7.34935   -7.20397   -7.02410   -6.86175
   -6.77445   -6.71292   -6.62050   -6.49951   -6.37087   -6.49947   -6.62041
   -6.71280   -6.77433   -6.86164   -7.02395   -7.20380   -7.34921   -7.40933
   -7.44466   -7.37212   -7.20028   -6.98300   -6.74856   -6.68081   -6.67760
   -6.60967   -6.50052   -6.37798   -6.50052   -6.60967   -6.67760   -6.68081
   -6.74856   -6.98300   -7.20028   -7.37212   -7.44466   -7.40933   -7.34922
   -7.20380   -7.02394   -6.86161   -6.77431   -6.71278   -6.62039   -6.49945
   -6.37086   -6.49949   -6.62048   -6.71290   -6.77442   -6.86173   -7.02409
   -7.20397   -7.34936   -7.40933   -7.30451   -7.27192   -7.18872   -7.08358
   -6.98035   -6.88105   -6.76995   -6.63925   -6.49491   -6.35268   -6.49499
   -6.63942   -6.77019   -6.88135   -6.98068   -7.08389   -7.18900   -7.27211
   -7.30451   -7.13378   -7.12840   -7.11200   -7.07859   -7.01533   -6.91698
   -6.78911   -6.64083   -6.48323   -6.33186   -6.48334   -6.64104   -6.78941
   -6.91735   -7.01575   -7.07897   -7.11224   -7.12851   -7.13378   -6.90342
   -6.91845   -6.95613   -6.98602   -6.96116   -6.87733   -6.75628   -6.61325
   -6.46070   -6.31376   -6.46079   -6.61344   -6.75654   -6.87767   -6.96154
   -6.98630   -6.95621   -6.91843   -6.90342   -6.62269   -6.65196   -6.72699
   -6.81025   -6.84229   -6.79660   -6.69755   -6.56866   -6.42530   -6.28298
   -6.42535   -6.56877   -6.69774   -6.79682   -6.84250   -6.81032   -6.72690
   -6.65185   -6.62269   -6.30455   -6.34416   -6.44449   -6.56297   -6.64708
   -6.65926   -6.60115   -6.49432   -6.35845   -6.21102   -6.35844   -6.49436
   -6.60121   -6.65933   -6.64711   -6.56291   -6.44436   -6.34402   -6.30455
   -5.96715   -6.01439   -6.13247   -6.27343   -6.39008   -6.44750   -6.43388
   -6.35850   -6.23827   -6.09083   -6.23823   -6.35848   -6.43387   -6.44749
   -6.39005   -6.27338   -6.13239   -6.01430   -5.96715   -5.65881   -5.68759
   -5.81667   -5.97230   -6.11039   -6.19869   -6.22071   -6.17695   -6.07865
   -5.94119   -6.07864   -6.17695   -6.22071   -6.19869   -6.11039   -5.97230
   -5.81667   -5.68759   -5.65881   -5.38661   -5.39789   -5.53090   -5.69518
   -5.84816   -5.95857   -6.00761   -5.99077   -5.91480   -5.79274   -5.91486
   -5.99082   -6.00766   -5.95863   -5.84823   -5.69525   -5.53094   -5.39755
   -5.38661   -5.17909   -5.19076   -5.32167   -5.48966   -5.65198   -5.77713
   -5.84459   -5.84702   -5.78850   -5.68067   -5.78859   -5.84710   -5.84467
   -5.77720   -5.65206   -5.48973   -5.32167   -5.18996   -5.17909   -5.09879
   -5.10988   -5.24212   -5.41121   -5.57695   -5.70763   -5.78203   -5.79179
   -5.74015   -5.63826   -5.74015   -5.79179   -5.78203   -5.70763   -5.57695
   -5.41121   -5.24212   -5.10988   -5.09879   -5.17912   -5.18994   -5.32165
   -5.48971   -5.65205   -5.77720   -5.84466   -5.84710   -5.78859   -5.68067
   -5.78851   -5.84702   -5.84459   -5.77712   -5.65197   -5.48964   -5.32165
   -5.19074   -5.17912   -5.49405   -5.52662   -5.65662   -5.81586   -5.96172
   -6.06257   -6.10035   -6.07232   -5.98689   -5.85789   -5.98677   -6.07221
   -6.10025   -6.06245   -5.96158   -5.81572   -5.65651   -5.52672   -5.49405
   -5.69583   -5.74582   -5.87083   -6.02221   -6.15593   -6.23936   -6.25624
   -6.20793   -6.10635   -5.96715   -6.10626   -6.20785   -6.25618   -6.23929
   -6.15583   -6.02208   -5.87070   -5.74575   -5.69583   -5.96713   -6.01436
   -6.13245   -6.27342   -6.39007   -6.44751   -6.43389   -6.35851   -6.23828
   -6.09085   -6.23825   -6.35850   -6.43388   -6.44749   -6.39004   -6.27336
   -6.13237   -6.01427   -5.96713   -6.25856   -6.30108   -6.40877   -6.53513
   -6.62549   -6.64196   -6.58663   -6.48154   -6.34664   -6.19984   -6.34664
   -6.48155   -6.58663   -6.64196   -6.62548   -6.53513   -6.40877   -6.30107
   -6.25856   -6.54763   -6.58319   -6.67496   -6.77709   -6.81421   -6.76470
   -6.66538   -6.54007   -6.40301   -6.27055   -6.40299   -6.54002   -6.66531
   -6.76461   -6.81411   -6.77707   -6.67502   -6.58328   -6.54763   -6.81581
   -6.84199   -6.90905   -6.95314   -6.90103   -6.80499   -6.68641   -6.55388
   -6.41764   -6.29441   -6.41757   -6.55376   -6.68624   -6.80478   -6.90076
   -6.95284   -6.90904   -6.84208   -6.81581   -7.04791   -7.05933   -7.08081
   -7.05650   -6.97843   -6.86963   -6.73819   -6.59044   -6.43567   -6.28971
   -6.43555   -6.59025   -6.73795   -6.86935   -6.97808   -7.05607   -7.08048
   -7.05927   -7.04791   -7.23207   -7.21820   -7.17820   -7.11364   -7.02361
   -6.90828   -6.77028   -6.61431   -6.44806   -6.28533   -6.44791   -6.61409
   -6.76999   -6.90793   -7.02318   -7.11318   -7.17778   -7.21796   -7.23207
   -7.35953   -7.31223   -7.20295   -7.07344   -6.95480   -6.85046   -6.73634
   -6.60024   -6.44655   -6.28905   -6.44642   -6.60006   -6.73610   -6.85017
   -6.95449   -7.07314   -7.20264   -7.31196   -7.35953   -7.42464   -7.35001
   -7.18417   -6.98294   -6.79269   -6.72281   -6.67236   -6.57403   -6.44082
   -6.29371   -6.44078   -6.57396   -6.67227   -6.72273   -6.79262   -6.98285
   -7.18406   -7.34990   -7.42464   -7.42465   -7.34990   -7.18406   -6.98284
   -6.79259   -6.72270   -6.67226   -6.57395   -6.44076   -6.29370   -6.44081
   -6.57402   -6.67235   -6.72279   -6.79265   -6.98293   -7.18416   -7.35001
   -7.42465   -7.35955   -7.31196   -7.20264   -7.07312   -6.95446   -6.85013
   -6.73607   -6.60002   -6.44639   -6.28902   -6.44651   -6.60021   -6.73631
   -6.85042   -6.95477   -7.07343   -7.20295   -7.31223   -7.35955   -7.23209
   -7.21797   -7.17779   -7.11317   -7.02316   -6.90789   -6.76995   -6.61405
   -6.44787   -6.28530   -6.44802   -6.61427   -6.77024   -6.90825   -7.02358
   -7.11363   -7.17820   -7.21822   -7.23209   -7.04794   -7.05930   -7.08049
   -7.05606   -6.97806   -6.86933   -6.73792   -6.59022   -6.43552   -6.28968
   -6.43564   -6.59041   -6.73816   -6.86961   -6.97841   -7.05649   -7.08082
   -7.05936   -7.04794   -6.81585   -6.84212   -6.90907   -6.95284   -6.90075
   -6.80477   -6.68623   -6.55374   -6.41755   -6.29439   -6.41762   -6.55386
   -6.68639   -6.80497   -6.90102   -6.95314   -6.90908   -6.84203   -6.81585
   -6.54768   -6.58332   -6.67506   -6.77709   -6.81411   -6.76461   -6.66530
   -6.54001   -6.40298   -6.27054   -6.40299   -6.54006   -6.66537   -6.76470
   -6.81421   -6.77711   -6.67499   -6.58323   -6.54768   -6.25862   -6.30113
   -6.40881   -6.53516   -6.62550   -6.64196   -6.58662   -6.48154   -6.34663
   -6.19983   -6.34663   -6.48154   -6.58662   -6.64196   -6.62550   -6.53516
   -6.40881   -6.30113   -6.25862   -5.96719   -6.01433   -6.13242   -6.27340
   -6.39006   -6.44750   -6.43388   -6.35849   -6.23824   -6.09084   -6.23827
   -6.35851   -6.43389   -6.44752   -6.39010   -6.27346   -6.13250   -6.01442
   -5.96719   -5.69589   -5.74580   -5.87075   -6.02212   -6.15586   -6.23930
   -6.25618   -6.20785   -6.10625   -5.96714   -6.10634   -6.20792   -6.25625
   -6.23938   -6.15596   -6.02224   -5.87088   -5.74588   -5.69589   -5.49402
   -5.52677   -5.65655   -5.81575   -5.96161   -6.06247   -6.10025   -6.07221
   -5.98676   -5.85788   -5.98689   -6.07232   -6.10036   -6.06258   -5.96174
   -5.81589   -5.65665   -5.52666   -5.49402   -5.38661   -5.39791   -5.53092
   -5.69520   -5.84817   -5.95857   -6.00761   -5.99076   -5.91480   -5.79273
   -5.91486   -5.99082   -6.00766   -5.95863   -5.84823   -5.69526   -5.53095
   -5.39757   -5.38661   -5.38662   -5.39755   -5.53094   -5.69525   -5.84822
   -5.95863   -6.00766   -5.99082   -5.91486   -5.79274   -5.91480   -5.99076
   -6.00760   -5.95857   -5.84816   -5.69518   -5.53091   -5.39789   -5.38662
   -5.49405   -5.52662   -5.65662   -5.81586   -5.96172   -6.06257   -6.10035
   -6.07232   -5.98689   -5.85789   -5.98677   -6.07221   -6.10025   -6.06245
   -5.96158   -5.81572   -5.65651   -5.52672   -5.49405   -5.85340   -5.89951
   -6.01587   -6.15745   -6.27996   -6.34967   -6.35161   -6.29013   -6.17939
   -6.03589   -6.17928   -6.29005   -6.35154   -6.34959   -6.27983   -6.15727
   -6.01567   -5.89935   -5.85340   -6.06667   -6.10931   -6.21722   -6.34761
   -6.45431   -6.50182   -6.47918   -6.39722   -6.27349   -6.12555   -6.27343
   -6.39719   -6.47917   -6.50180   -6.45424   -6.34747   -6.21703   -6.10913
   -6.06667   -6.30455   -6.34416   -6.44449   -6.56297   -6.64709   -6.65928
   -6.60117   -6.49435   -6.35847   -6.21104   -6.35847   -6.49438   -6.60123
   -6.65935   -6.64712   -6.56291   -6.44435   -6.34401   -6.30455   -6.54764
   -6.58329   -6.67504   -6.77708   -6.81413   -6.76462   -6.66532   -6.54003
   -6.40300   -6.27056   -6.40302   -6.54008   -6.66539   -6.76471   -6.81421
   -6.77710   -6.67497   -6.58320   -6.54764   -6.78183   -6.81036   -6.89078
   -6.89240   -6.81784   -6.72429   -6.61609   -6.49924   -6.38438   -6.29108
   -6.38439   -6.49925   -6.61610   -6.72430   -6.81784   -6.89240   -6.89078
   -6.81036   -6.78183   -6.95162   -6.93647   -6.90206   -6.84970   -6.77849
   -6.68918   -6.58455   -6.47084   -6.36063   -6.27707   -6.36056   -6.47076
   -6.58449   -6.68914   -6.77850   -6.84977   -6.90219   -6.93665   -6.95162
   -7.08115   -7.07016   -7.03797   -6.98398   -6.90683   -6.80646   -6.68466
   -6.54538   -6.39604   -6.25173   -6.39588   -6.54520   -6.68448   -6.80631
   -6.90671   -6.98391   -7.03795   -7.07019   -7.08115   -7.20484   -7.19331
   -7.15517   -7.08581   -6.98978   -6.87178   -6.73391   -6.57842   -6.40921
   -6.23403   -6.40899   -6.57817   -6.73364   -6.87149   -6.98945   -7.08548
   -7.15492   -7.19321   -7.20484   -7.29063   -7.27662   -7.18917   -7.04936
   -6.92198   -6.81371   -6.69582   -6.55594   -6.39680   -6.22530   -6.39661
   -6.55573   -6.69558   -6.81343   -6.92168   -7.04907   -7.18880   -7.27638
   -7.29063   -7.32453   -7.31668   -7.16217   -6.96466   -6.74806   -6.70069
   -6.64253   -6.53037   -6.38569   -6.22258   -6.38569   -6.53037   -6.64253
   -6.70069   -6.74806   -6.96466   -7.16217   -7.31668   -7.32453   -7.29062
   -7.27637   -7.18879   -7.04905   -6.92165   -6.81338   -6.69554   -6.55569
   -6.39658   -6.22526   -6.39676   -6.55590   -6.69578   -6.81366   -6.92194
   -7.04934   -7.18916   -7.27662   -7.29062   -7.20483   -7.19320   -7.15490
   -7.08546   -6.98942   -6.87145   -6.73360   -6.57813   -6.40894   -6.23397
   -6.40916   -6.57837   -6.73387   -6.87175   -6.98975   -7.08579   -7.15516
   -7.19331   -7.20483   -7.08114   -7.07018   -7.03795   -6.98390   -6.90669
   -6.80629   -6.68445   -6.54516   -6.39584   -6.25168   -6.39599   -6.54534
   -6.68463   -6.80644   -6.90682   -6.98397   -7.03796   -7.07015   -7.08114
   -6.95162   -6.93665   -6.90220   -6.84977   -6.77849   -6.68913   -6.58447
   -6.47074   -6.36054   -6.27705   -6.36061   -6.47082   -6.58454   -6.68917
   -6.77849   -6.84970   -6.90207   -6.93647   -6.95162   -6.78190   -6.81042
   -6.89083   -6.89241   -6.81785   -6.72430   -6.61610   -6.49924   -6.38438
   -6.29108   -6.38438   -6.49924   -6.61610   -6.72430   -6.81785   -6.89241
   -6.89083   -6.81042   -6.78190   -6.54771   -6.58327   -6.67502   -6.77713
   -6.81423   -6.76472   -6.66540   -6.54009   -6.40302   -6.27056   -6.40300
   -6.54004   -6.66533   -6.76463   -6.81414   -6.77711   -6.67509   -6.58336
   -6.54771   -6.30462   -6.34409   -6.44441   -6.56295   -6.64714   -6.65936
   -6.60124   -6.49438   -6.35847   -6.21104   -6.35848   -6.49435   -6.60117
   -6.65930   -6.64712   -6.56301   -6.44455   -6.34423   -6.30462   -6.06674
   -6.10920   -6.21708   -6.34751   -6.45427   -6.50182   -6.47918   -6.39720
   -6.27343   -6.12555   -6.27349   -6.39722   -6.47919   -6.50184   -6.45434
   -6.34765   -6.21728   -6.10938   -6.06674   -5.85346   -5.89941   -6.01572
   -6.15731   -6.27986   -6.34961   -6.35155   -6.29006   -6.17928   -6.03589
   -6.17939   -6.29014   -6.35162   -6.34969   -6.27998   -6.15749   -6.01592
   -5.89957   -5.85346   -5.69591   -5.74582   -5.87076   -6.02213   -6.15586
   -6.23930   -6.25618   -6.20785   -6.10625   -5.96714   -6.10634   -6.20792
   -6.25625   -6.23938   -6.15596   -6.02225   -5.87089   -5.74590   -5.69591
   -5.65880   -5.68763   -5.81670   -5.97232   -6.11040   -6.19870   -6.22071
   -6.17695   -6.07864   -5.94118   -6.07864   -6.17695   -6.22071   -6.19870
   -6.11040   -5.97232   -5.81670   -5.68763   -5.65880   -5.69587   -5.74586
   -5.87086   -6.02223   -6.15595   -6.23937   -6.25624   -6.20792   -6.10634
   -5.96714   -6.10625   -6.20785   -6.25617   -6.23929   -6.15585   -6.02210
   -5.87073   -5.74579   -5.69587   -5.85340   -5.89951   -6.01587   -6.15745
   -6.27996   -6.34967   -6.35161   -6.29013   -6.17939   -6.03589   -6.17928
   -6.29005   -6.35154   -6.34959   -6.27983   -6.15727   -6.01567   -5.89935
   -5.85340   -6.23069   -6.26769   -6.36257   -6.47775   -6.56767   -6.59625
   -6.55587   -6.46120   -6.33090   -6.18233   -6.33085   -6.46121   -6.55592
   -6.59628   -6.56764   -6.47761   -6.36236   -6.26751   -6.23069   -6.42346
   -6.45600   -6.53976   -6.63949   -6.70707   -6.70655   -6.63983   -6.52779
   -6.38942   -6.24139   -6.38942   -6.52786   -6.63995   -6.70668   -6.70714
   -6.63943   -6.53960   -6.45585   -6.42346   -6.62270   -6.65198   -6.72701
   -6.81028   -6.84232   -6.79663   -6.69760   -6.56870   -6.42535   -6.28303
   -6.42539   -6.56882   -6.69778   -6.79686   -6.84253   -6.81034   -6.72691
   -6.65186   -6.62270   -6.81584   -6.84211   -6.90907   -6.95287   -6.90079
   -6.80481   -6.68627   -6.55379   -6.41760   -6.29444   -6.41767   -6.55392
   -6.68644   -6.80501   -6.90105   -6.95316   -6.90907   -6.84202   -6.81584
   -6.95164   -6.93666   -6.90220   -6.84978   -6.77851   -6.68915   -6.58450
   -6.47078   -6.36058   -6.27710   -6.36066   -6.47086   -6.58458   -6.68920
   -6.77851   -6.84972   -6.90208   -6.93649   -6.95164   -6.83629   -6.82899
   -6.80666   -6.76821   -6.71262   -6.63955   -6.55011   -6.44806   -6.34218
   -6.25209   -6.34218   -6.44806   -6.55011   -6.63955   -6.71262   -6.76821
   -6.80666   -6.82900   -6.83629   -6.95239   -6.94243   -6.91536   -6.87388
   -6.81605   -6.73872   -6.64077   -6.52347   -6.38991   -6.24596   -6.38975
   -6.52334   -6.64067   -6.73867   -6.81605   -6.87392   -6.91543   -6.94249
   -6.95239   -7.04202   -7.03235   -7.00536   -6.96324   -6.90015   -6.80998
   -6.69598   -6.56346   -6.41673   -6.26054   -6.41643   -6.56318   -6.69574
   -6.80977   -6.90002   -6.96322   -7.00540   -7.03239   -7.04202   -7.08846
   -7.07915   -7.05296   -7.00730   -6.89169   -6.77755   -6.66256   -6.53660
   -6.40315   -6.27602   -6.40290   -6.53635   -6.66231   -6.77726   -6.89139
   -7.00702   -7.05295   -7.07916   -7.08846   -7.08845   -7.07916   -7.05295
   -7.00699   -6.89134   -6.77722   -6.66226   -6.53631   -6.40286   -6.27599
   -6.40311   -6.53656   -6.66252   -6.77751   -6.89165   -7.00727   -7.05295
   -7.07915   -7.08845   -7.04201   -7.03238   -7.00539   -6.96321   -6.90000
   -6.80974   -6.69569   -6.56313   -6.41637   -6.26047   -6.41667   -6.56340
   -6.69594   -6.80994   -6.90013   -6.96323   -7.00536   -7.03235   -7.04201
   -6.95238   -6.94248   -6.91542   -6.87391   -6.81603   -6.73865   -6.64064
   -6.52329   -6.38970   -6.24589   -6.38986   -6.52343   -6.64074   -6.73870
   -6.81604   -6.87386   -6.91535   -6.94243   -6.95238   -6.83627   -6.82898
   -6.80664   -6.76820   -6.71261   -6.63954   -6.55010   -6.44804   -6.34215
   -6.25206   -6.34215   -6.44804   -6.55009   -6.63953   -6.71261   -6.76820
   -6.80664   -6.82898   -6.83627   -6.95166   -6.93651   -6.90210   -6.84974
   -6.77853   -6.68921   -6.58459   -6.47087   -6.36066   -6.27710   -6.36059
   -6.47078   -6.58451   -6.68917   -6.77852   -6.84980   -6.90223   -6.93669
   -6.95166   -6.81592   -6.84210   -6.90913   -6.95319   -6.90107   -6.80503
   -6.68645   -6.55393   -6.41769   -6.29446   -6.41761   -6.55380   -6.68629
   -6.80483   -6.90081   -6.95290   -6.90913   -6.84218   -6.81592   -6.62279
   -6.65194   -6.72698   -6.81038   -6.84256   -6.79688   -6.69779   -6.56883
   -6.42541   -6.28305   -6.42536   -6.56871   -6.69761   -6.79666   -6.84235
   -6.81032   -6.72707   -6.65206   -6.62279   -6.42355   -6.45593   -6.53966
   -6.63948   -6.70717   -6.70670   -6.63996   -6.52788   -6.38943   -6.24141
   -6.38943   -6.52781   -6.63985   -6.70657   -6.70710   -6.63954   -6.53983
   -6.45608   -6.42355   -6.23076   -6.26758   -6.36242   -6.47766   -6.56767
   -6.59630   -6.55593   -6.46122   -6.33086   -6.18234   -6.33091   -6.46122
   -6.55589   -6.59627   -6.56771   -6.47779   -6.36263   -6.26776   -6.23076
   -6.06676   -6.10922   -6.21710   -6.34752   -6.45427   -6.50182   -6.47918
   -6.39719   -6.27342   -6.12554   -6.27349   -6.39722   -6.47919   -6.50184
   -6.45434   -6.34766   -6.21729   -6.10939   -6.06676   -5.96723   -6.01436
   -6.13244   -6.27341   -6.39007   -6.44751   -6.43388   -6.35849   -6.23824
   -6.09083   -6.23827   -6.35850   -6.43389   -6.44752   -6.39010   -6.27347
   -6.13253   -6.01445   -5.96723   -5.96721   -6.01444   -6.13251   -6.27346
   -6.39010   -6.44751   -6.43388   -6.35850   -6.23826   -6.09083   -6.23823
   -6.35848   -6.43388   -6.44750   -6.39006   -6.27340   -6.13243   -6.01435
   -5.96721   -6.06671   -6.10934   -6.21725   -6.34763   -6.45432   -6.50182
   -6.47917   -6.39721   -6.27348   -6.12554   -6.27342   -6.39718   -6.47917
   -6.50180   -6.45425   -6.34749   -6.21705   -6.10917   -6.06671   -6.23069
   -6.26769   -6.36257   -6.47775   -6.56767   -6.59625   -6.55587   -6.46120
   -6.33090   -6.18233   -6.33085   -6.46121   -6.55592   -6.59628   -6.56764
   -6.47761   -6.36236   -6.26751   -6.23069   -6.57939   -6.60468   -6.67062
   -6.74810   -6.79248   -6.77136   -6.69009   -6.56944   -6.42730   -6.27964
   -6.42731   -6.56955   -6.69027   -6.77156   -6.79263   -6.74810   -6.67050
   -6.60457   -6.57939   -6.74462   -6.76409   -6.81470   -6.86988   -6.88531
   -6.83598   -6.73521   -6.60326   -6.45600   -6.30882   -6.45605   -6.60341