
                           ***********************       
                           *  WELCOME TO SIESTA  *       
                           ***********************       

reinit: Reading from standard input
reinit: Dumped input in INPUT_TMP.64401
************************** Dump of input data file ****************************
SystemName       BN-monolayer
SystemLabel      BN           # Short name for naming files
WriteCoorStep
WriteMullikenPop       1
NumberOfSpecies        2
NumberOfAtoms          2
%block ChemicalSpeciesLabel
  1   5   B
  2   7   N
%endblock ChemicalSpeciesLabel
# Basis
PAO.EnergyShift       50 meV
PAO.BasisSize         DZP
Atomic_coordinates_format   Fractional
LatticeConstant       1.00 Ang
%block LatticeParameters
  2.40  2.40  10.00   90.  90.  120.
%endblock LatticeParameters
# Atomic coordinates
AtomicCoordinatesFormat     Fractional
%block AtomicCoordinatesAndAtomicSpecies
  0.67  0.33  0.10  1
  0.33  0.67  0.90  2
%endblock AtomicCoordinatesAndAtomicSpecies
%block kgrid_Monkhorst_Pack
 10  0  0  0.   #
  0 10  0  0.   #
  0  0  1  0.   #
%endblock kgrid_Monkhorst_Pack
#
# -- dynamical part
MD.TypeOfRun     CG                # Default value
MD.VariableCell   T
MD.NumCGsteps    50
MD.MaxStressTol    0.5 GPa       #  Default: 1.0 GPa
MD.MaxForceTol     0.02 eV/Ang   #  Default: 0.04 eV/Ang
#
# -- I/O par10
#%block BandLines
#  1  0.00000   0.000000  0.000000  \Gamma
# 40  2.00000   0.000000  0.000000  H
# 28  1.00000   1.000000  0.000000  N
# 28  0.00000   0.000000  0.000000  \Gamma
# 34  1.00000   1.000000  1.000000  P
#%endblock BandLines
XC.functional         LDA           # Exchange-correlation functional
XC.authors            CA            # Exchange-correlation version
MeshCutoff           250. Ry        # Mesh cutoff. real space mesh
# SCF options
#MaxSCFIterations       80           # Maximum number of SCF iter
                                    # between input and output DM
#DM.UseSaveDM          true          # to use continuation files
#DM.NumberPulay         3
************************** End of input data file *****************************

reinit: -----------------------------------------------------------------------
reinit: System Name: BN-monolayer
reinit: -----------------------------------------------------------------------
reinit: System Label: BN
reinit: -----------------------------------------------------------------------
Siesta Version: siesta-4.1--625
Architecture  : unknown
Compiler flags: gfortran -O2 -fPIC -ftree-vectorize
PP flags      : -DFC_HAVE_ABORT
Libraries     : libsiestaLAPACK.a libsiestaBLAS.a
SERIAL version

* Running in serial mode
>> Start of run:  20-MAY-2017  11:26:23

initatom: Reading input for the pseudopotentials and atomic orbitals ----------
Species number:   1 Atomic number:    5 Label: B
Species number:   2 Atomic number:    7 Label: N

Ground state valence configuration:   2s02  2p01
Reading pseudopotential information in formatted form from B.psf

Pseudopotential generated from a relativistic atomic calculation
There are spin-orbit pseudopotentials available
Spin-orbit interaction is not included in this calculation

Valence configuration for pseudopotential generation:
2s( 2.00) rc: 1.70
2p( 1.00) rc: 1.70
3d( 0.00) rc: 1.70
4f( 0.00) rc: 1.70
Ground state valence configuration:   2s02  2p03
Reading pseudopotential information in formatted form from N.psf

Valence configuration for pseudopotential generation:
2s( 2.00) rc: 1.24
2p( 3.00) rc: 1.24
3d( 0.00) rc: 1.24
4f( 0.00) rc: 1.24
For B, standard SIESTA heuristics set lmxkb to 3
 (one more than the basis l, including polarization orbitals).
Use PS.lmax or PS.KBprojectors blocks to override.
For N, standard SIESTA heuristics set lmxkb to 3
 (one more than the basis l, including polarization orbitals).
Use PS.lmax or PS.KBprojectors blocks to override.

<basis_specs>
===============================================================================
B                    Z=   5    Mass=  10.810        Charge= 0.17977+309
Lmxo=1 Lmxkb= 3    BasisType=split      Semic=F
L=0  Nsemic=0  Cnfigmx=2
          n=1  nzeta=2  polorb=0
            splnorm:   0.15000    
               vcte:    0.0000    
               rinn:    0.0000    
               qcoe:    0.0000    
               qyuk:    0.0000    
               qwid:   0.10000E-01
                rcs:    0.0000      0.0000    
            lambdas:    1.0000      1.0000    
L=1  Nsemic=0  Cnfigmx=2
          n=1  nzeta=2  polorb=1
            splnorm:   0.15000    
               vcte:    0.0000    
               rinn:    0.0000    
               qcoe:    0.0000    
               qyuk:    0.0000    
               qwid:   0.10000E-01
                rcs:    0.0000      0.0000    
            lambdas:    1.0000      1.0000    
-------------------------------------------------------------------------------
L=0  Nkbl=1  erefs: 0.17977+309
L=1  Nkbl=1  erefs: 0.17977+309
L=2  Nkbl=1  erefs: 0.17977+309
L=3  Nkbl=1  erefs: 0.17977+309
===============================================================================
</basis_specs>

atom: Called for B                     (Z =   5)

read_vps: Pseudopotential generation method:
read_vps: ATM 3.2.2 Troullier-Martins                       
Total valence charge:    3.00000

read_vps: Pseudopotential includes a core correction:
read_vps: Pseudo-core for xc-correction

xc_check: Exchange-correlation functional:
xc_check: Ceperley-Alder
V l=0 = -2*Zval/r beyond r=  1.6741
V l=1 = -2*Zval/r beyond r=  1.6741
V l=2 = -2*Zval/r beyond r=  1.6741
V l=3 = -2*Zval/r beyond r=  1.6533
All V_l potentials equal beyond r=  1.6741
This should be close to max(r_c) in ps generation
All pots = -2*Zval/r beyond r=  1.6741

VLOCAL1: 99.0% of the norm of Vloc inside     15.489 Ry
VLOCAL1: 99.9% of the norm of Vloc inside     35.299 Ry
atom: Maximum radius for 4*pi*r*r*local-pseudopot. charge    1.99434
atom: Maximum radius for r*vlocal+2*Zval:    1.71648
GHOST: No ghost state for L =  0
GHOST: No ghost state for L =  1
GHOST: No ghost state for L =  2
GHOST: No ghost state for L =  3

KBgen: Kleinman-Bylander projectors: 
   l= 0   rc=  1.873480   el= -0.689950   Ekb=  4.486900   kbcos=  0.290278
   l= 1   rc=  1.897051   el= -0.273506   Ekb= -2.545070   kbcos= -0.306788
   l= 2   rc=  2.204140   el=  0.002410   Ekb= -0.662153   kbcos= -0.013725
   l= 3   rc=  2.466650   el=  0.003543   Ekb= -0.289019   kbcos= -0.002043

KBgen: Total number of  Kleinman-Bylander projectors:   16
atom: -------------------------------------------------------------------------

atom: SANKEY-TYPE ORBITALS:
atom: Selected multiple-zeta basis: split     

SPLIT: Orbitals with angular momentum L= 0

SPLIT: Basis orbitals for state 2s

SPLIT: PAO cut-off radius determined from an
SPLIT: energy shift=  0.003675 Ry

   izeta = 1
                 lambda =    1.000000
                     rc =    5.992324
                 energy =   -0.686590
                kinetic =    0.551495
    potential(screened) =   -1.238085
       potential(ionic) =   -3.239742

   izeta = 2
                 rmatch =    4.329481
              splitnorm =    0.150000
                 energy =   -0.595862
                kinetic =    0.858191
    potential(screened) =   -1.454052
       potential(ionic) =   -3.588120

SPLIT: Orbitals with angular momentum L= 1

SPLIT: Basis orbitals for state 2p

SPLIT: PAO cut-off radius determined from an
SPLIT: energy shift=  0.003675 Ry

   izeta = 1
                 lambda =    1.000000
                     rc =    7.319151
                 energy =   -0.269845
                kinetic =    1.473175
    potential(screened) =   -1.743020
       potential(ionic) =   -3.648038

   izeta = 2
                 rmatch =    4.666717
              splitnorm =    0.150000
                 energy =   -0.182308
                kinetic =    2.225142
    potential(screened) =   -2.407450
       potential(ionic) =   -4.517427

POLgen: Perturbative polarization orbital with L=  2

POLgen: Polarization orbital for state 2p

   izeta = 1
                     rc =    7.319151
                 energy =    0.629035
                kinetic =    1.381835
    potential(screened) =   -0.752800
       potential(ionic) =   -2.331449
atom: Total number of Sankey-type orbitals: 13

atm_pop: Valence configuration (for local Pseudopot. screening):
 2s( 2.00)                                                            
 2p( 1.00)                                                            
Vna: chval, zval:    3.00000   3.00000

Vna:  Cut-off radius for the neutral-atom potential:   7.319151
comcore: Pseudo-core radius Rcore=  2.122997

atom: _________________________________________________________________________

<basis_specs>
===============================================================================
N                    Z=   7    Mass=  14.010        Charge= 0.17977+309
Lmxo=1 Lmxkb= 3    BasisType=split      Semic=F
L=0  Nsemic=0  Cnfigmx=2
          n=1  nzeta=2  polorb=0
            splnorm:   0.15000    
               vcte:    0.0000    
               rinn:    0.0000    
               qcoe:    0.0000    
               qyuk:    0.0000    
               qwid:   0.10000E-01
                rcs:    0.0000      0.0000    
            lambdas:    1.0000      1.0000    
L=1  Nsemic=0  Cnfigmx=2
          n=1  nzeta=2  polorb=1
            splnorm:   0.15000    
               vcte:    0.0000    
               rinn:    0.0000    
               qcoe:    0.0000    
               qyuk:    0.0000    
               qwid:   0.10000E-01
                rcs:    0.0000      0.0000    
            lambdas:    1.0000      1.0000    
-------------------------------------------------------------------------------
L=0  Nkbl=1  erefs: 0.17977+309
L=1  Nkbl=1  erefs: 0.17977+309
L=2  Nkbl=1  erefs: 0.17977+309
L=3  Nkbl=1  erefs: 0.17977+309
===============================================================================
</basis_specs>

atom: Called for N                     (Z =   7)

read_vps: Pseudopotential generation method:
read_vps: ATM3      Troullier-Martins                       
Total valence charge:    5.00000

xc_check: Exchange-correlation functional:
xc_check: Ceperley-Alder
V l=0 = -2*Zval/r beyond r=  1.2415
V l=1 = -2*Zval/r beyond r=  1.2261
V l=2 = -2*Zval/r beyond r=  1.2261
V l=3 = -2*Zval/r beyond r=  1.2108
All V_l potentials equal beyond r=  1.2261
This should be close to max(r_c) in ps generation
All pots = -2*Zval/r beyond r=  1.2415

VLOCAL1: 99.0% of the norm of Vloc inside     28.877 Ry
VLOCAL1: 99.9% of the norm of Vloc inside     65.810 Ry
atom: Maximum radius for 4*pi*r*r*local-pseudopot. charge    1.47898
atom: Maximum radius for r*vlocal+2*Zval:    1.28893
GHOST: No ghost state for L =  0
GHOST: No ghost state for L =  1
GHOST: No ghost state for L =  2
GHOST: No ghost state for L =  3

KBgen: Kleinman-Bylander projectors: 
   l= 0   rc=  1.442452   el= -1.352238   Ekb=  7.930377   kbcos=  0.314046
   l= 1   rc=  1.442452   el= -0.532622   Ekb= -6.153911   kbcos= -0.361477
   l= 2   rc=  1.634559   el=  0.002346   Ekb= -1.583210   kbcos= -0.004783
   l= 3   rc=  1.740002   el=  0.003449   Ekb= -0.620719   kbcos= -0.000506

KBgen: Total number of  Kleinman-Bylander projectors:   16
atom: -------------------------------------------------------------------------

atom: SANKEY-TYPE ORBITALS:
atom: Selected multiple-zeta basis: split     

SPLIT: Orbitals with angular momentum L= 0

SPLIT: Basis orbitals for state 2s

SPLIT: PAO cut-off radius determined from an
SPLIT: energy shift=  0.003675 Ry

   izeta = 1
                 lambda =    1.000000
                     rc =    4.499702
                 energy =   -1.349172
                kinetic =    1.167994
    potential(screened) =   -2.517166
       potential(ionic) =   -8.038948

   izeta = 2
                 rmatch =    2.978652
              splitnorm =    0.150000
                 energy =   -1.175045
                kinetic =    1.791467
    potential(screened) =   -2.966512
       potential(ionic) =   -8.904807

SPLIT: Orbitals with angular momentum L= 1

SPLIT: Basis orbitals for state 2p

SPLIT: PAO cut-off radius determined from an
SPLIT: energy shift=  0.003675 Ry

   izeta = 1
                 lambda =    1.000000
                     rc =    5.496027
                 energy =   -0.529217
                kinetic =    3.524110
    potential(screened) =   -4.053327
       potential(ionic) =   -9.395175

   izeta = 2
                 rmatch =    3.131389
              splitnorm =    0.150000
                 energy =   -0.350331
                kinetic =    5.246965
    potential(screened) =   -5.597297
       potential(ionic) =  -11.585644

POLgen: Perturbative polarization orbital with L=  2

POLgen: Polarization orbital for state 2p

   izeta = 1
                     rc =    5.496027
                 energy =    1.479495
                kinetic =    3.019456
    potential(screened) =   -1.539961
       potential(ionic) =   -5.722465
atom: Total number of Sankey-type orbitals: 13

atm_pop: Valence configuration (for local Pseudopot. screening):
 2s( 2.00)                                                            
 2p( 3.00)                                                            
Vna: chval, zval:    5.00000   5.00000

Vna:  Cut-off radius for the neutral-atom potential:   5.496027

atom: _________________________________________________________________________

prinput: Basis input ----------------------------------------------------------

PAO.BasisType split     

%block ChemicalSpeciesLabel
    1    5 B                       # Species index, atomic number, species label
    2    7 N                       # Species index, atomic number, species label
%endblock ChemicalSpeciesLabel

%block PAO.Basis                 # Define Basis set
B                     2                    # Species label, number of l-shells
 n=2   0   2                         # n, l, Nzeta 
   5.992      4.329   
   1.000      1.000   
 n=2   1   2 P   1                   # n, l, Nzeta, Polarization, NzetaPol
   7.319      4.667   
   1.000      1.000   
N                     2                    # Species label, number of l-shells
 n=2   0   2                         # n, l, Nzeta 
   4.500      2.979   
   1.000      1.000   
 n=2   1   2 P   1                   # n, l, Nzeta, Polarization, NzetaPol
   5.496      3.131   
   1.000      1.000   
%endblock PAO.Basis

prinput: ----------------------------------------------------------------------

coor:   Atomic-coordinates input format  =     Fractional

siesta: Atomic coordinates (Bohr) and species
siesta:      2.29035   1.29615   1.88973  1        1
siesta:     -0.02268   2.63157  17.00754  2        2

siesta: System type = bulk      

initatomlists: Number of atoms, orbitals, and projectors:      2    26    32

siesta: ******************** Simulation parameters ****************************
siesta:
siesta: The following are some of the parameters of the simulation.
siesta: A complete list of the parameters used, including default values,
siesta: can be found in file out.fdf
siesta:
redata: Spin configuration                          = none
redata: Number of spin components                   = 1
redata: Time-Reversal Symmetry                      = T
redata: Spin-spiral                                 = F
redata: Long output                                 =   F
redata: Number of Atomic Species                    =        2
redata: Charge density info will appear in .RHO file
redata: Write Mulliken Pop.                         = Atomic and Orbital charges
redata: Mesh Cutoff                                 =   250.0000 Ry
redata: Net charge of the system                    =     0.0000 |e|
redata: Min. number of SCF Iter                     =        0
redata: Max. number of SCF Iter                     =       50
redata: SCF mix quantity                            = Hamiltonian
redata: Mix DM or H after convergence               =   F
redata: Recompute H after scf cycle                 =   F
redata: Mix DM in first SCF step                    =   T
redata: Write Pulay info on disk                    =   F
redata: New DM Mixing Weight                        =     0.2500
redata: New DM Occupancy tolerance                  = 0.000000000001
redata: No kicks to SCF
redata: DM Mixing Weight for Kicks                  =     0.5000
redata: Require Harris convergence for SCF          =   F
redata: Harris energy tolerance for SCF             =     0.000100 eV
redata: Require DM convergence for SCF              =   T
redata: DM tolerance for SCF                        =     0.0001
redata: Require EDM convergence for SCF             =   F
redata: EDM tolerance for SCF                       =     0.001000 eV
redata: Require H convergence for SCF               =   T
redata: Hamiltonian tolerance for SCF               =     0.001000 eV
redata: Require (free) Energy convergence for SCF   =   F
redata: (free) Energy tolerance for SCF             =     0.000100 eV
redata: Using Saved Data (generic)                  =   F
redata: Use continuation files for DM               =   F
redata: Neglect nonoverlap interactions             =   F
redata: Method of Calculation                       = Diagonalization
redata: Divide and Conquer                          =   T
redata: Electronic Temperature                      =   299.9869 K
redata: Fix the spin of the system                  =   F
redata: Dynamics option                             = CG coord. optimization
redata: Variable cell                               =   T
redata: Use continuation files for CG               =   F
redata: Max atomic displ per move                   =     0.1058 Ang
redata: Maximum number of CG moves                  =       50
redata: Force tolerance                             =     0.0200 eV/Ang
redata: Stress tolerance                            =     0.5000 GPa
mix.SCF: Pulay mixing                            = Pulay
mix.SCF:    Variant                              = stable
mix.SCF:    History steps                        = 2
mix.SCF:    Linear mixing weight                 =     0.250000
mix.SCF:    Mixing weight                        =     0.250000
mix.SCF:    SVD condition                        = 0.1000E-07
redata: ***********************************************************************

%block SCF.Mixers
  Pulay                   
%endblock SCF.Mixers

%block SCF.Mixer.Pulay
  # Mixing method
  method pulay
  variant stable

  # Mixing options
  weight 0.2500
  weight.linear 0.2500
  history 2
  restart 0
  restart.save 1

  # Continuation options
%endblock SCF.Mixer.Pulay

DM_history_depth set to one: no extrapolation allowed by default for geometry relaxation
Size of DM history Fstack: 1
Total number of electrons:     8.000000
Total ionic charge:     8.000000
k-point displ. along   1 input, could be:     0.00    0.50
k-point displ. along   2 input, could be:     0.00    0.50
 Kpoints in:           60 . Kpoints trimmed:           56

siesta: k-grid: Number of k-points =    56
siesta: k-grid: Cutoff (effective) =     5.000 Ang
siesta: k-grid: Supercell and displacements
siesta: k-grid:   10   0   0      0.000
siesta: k-grid:    0  10   0      0.000
siesta: k-grid:    0   0   1      0.000

superc: Internal auxiliary supercell:     9 x     9 x     3  =     243
superc: Number of atoms, orbitals, and projectors:    486   6318   7776


                     ====================================
                        Begin CG opt. move =      0
                     ====================================

outcoor: Atomic coordinates (fractional):                   
    0.67000000    0.33000000    0.10000000   1       1  B
    0.33000000    0.67000000    0.90000000   2       2  N

superc: Internal auxiliary supercell:     9 x     9 x     3  =     243
superc: Number of atoms, orbitals, and projectors:    486   6318   7776

outcell: Unit cell vectors (Ang):
        2.400000    0.000000    0.000000
       -1.200000    2.078461    0.000000
        0.000000    0.000000   10.000000

outcell: Cell vector modules (Ang)   :    2.400000    2.400000   10.000000
outcell: Cell angles (23,13,12) (deg):     90.0000     90.0000    120.0000
outcell: Cell volume (Ang**3)        :     49.8831
<dSpData1D:S at geom step 0
  <sparsity:sparsity for geom step 0
    nrows_g=26 nrows=26 sparsity=35.2219 nnzs=23810, refcount: 7>
  <dData1D:(new from dSpData1D) n=23810, refcount: 1>
refcount: 1>
New_DM. Step:     1
Initializing Density Matrix...
DM after filling with atomic data:
<dSpData2D:(DM initialized from atoms)
  <sparsity:sparsity for geom step 0
    nrows_g=26 nrows=26 sparsity=35.2219 nnzs=23810, refcount: 8>
  <dData2D:(DMatomic) n=23810 m=1, refcount: 1>
refcount: 1>
No. of atoms with KB's overlaping orbs in proc 0. Max # of overlaps:      50     307
New grid distribution:   1
           1       1:   10    1:   10    1:   48

InitMesh: MESH =    20 x    20 x    96 =       38400
InitMesh: (bp) =    10 x    10 x    48 =        4800
InitMesh: Mesh cutoff (required, used) =   250.000   254.709 Ry
ExtMesh (bp) on 0 =    86 x    86 x   124 =      917104
PhiOnMesh: Number of (b)points on node 0 =                 4800
PhiOnMesh: nlist on node 0 =               340243

stepf: Fermi-Dirac step function

siesta: Program's energy decomposition (eV):
siesta: Ebs     =       -84.307512
siesta: Eions   =       626.761802
siesta: Ena     =       168.056822
siesta: Ekin    =       207.024336
siesta: Enl     =        -7.495918
siesta: Eso     =         0.000000
siesta: Eldau   =         0.000000
siesta: DEna    =         4.913224
siesta: DUscf   =         1.325986
siesta: DUext   =         0.000000
siesta: Exc     =       -92.887237
siesta: eta*DQ  =         0.000000
siesta: Emadel  =         0.000000
siesta: Emeta   =         0.000000
siesta: Emolmec =         0.000000
siesta: Ekinion =         0.000000
siesta: Eharris =      -345.065012
siesta: Etot    =      -345.824590
siesta: FreeEng =      -345.825963

        iscf     Eharris(eV)        E_KS(eV)     FreeEng(eV)     dDmax    Ef(eV) dHmax(eV)
   scf:    1     -345.065012     -345.824590     -345.825963  1.731721 -6.019281  4.805897
timer: Routine,Calls,Time,% = IterSCF        1       0.879  20.33
   scf:    2     -332.445714     -342.926152     -342.930338  0.533400 -5.811797 11.471540
   scf:    3     -346.646021     -346.705875     -346.710409  0.315354 -6.223914  0.721389
   scf:    4     -346.723588     -346.721014     -346.726153  0.045259 -6.281861  0.374478
   scf:    5     -346.724185     -346.723410     -346.728379  0.015943 -6.313263  0.192923
   scf:    6     -346.722074     -346.723833     -346.729003  0.016200 -6.320190  0.252630
   scf:    7     -346.725564     -346.724989     -346.730061  0.005409 -6.327654  0.086758
   scf:    8     -346.725517     -346.725279     -346.730374  0.006541 -6.331570  0.079518
   scf:    9     -346.725273     -346.725358     -346.730397  0.002356 -6.332608  0.050044
   scf:   10     -346.725458     -346.725461     -346.730544  0.004875 -6.331961  0.044838
   scf:   11     -346.725555     -346.725510     -346.730586  0.001094 -6.331496  0.031990
   scf:   12     -346.725656     -346.725586     -346.730659  0.003509 -6.327982  0.020343
   scf:   13     -346.725604     -346.725613     -346.730658  0.003354 -6.322240  0.029377
   scf:   14     -346.725582     -346.725608     -346.730674  0.001843 -6.323746  0.009399
   scf:   15     -346.725619     -346.725614     -346.730676  0.000331 -6.322274  0.003923
   scf:   16     -346.725614     -346.725614     -346.730676  0.000093 -6.320993  0.003201
   scf:   17     -346.725624     -346.725620     -346.730675  0.000359 -6.320398  0.007116
   scf:   18     -346.725610     -346.725616     -346.730676  0.000215 -6.320532  0.001125
   scf:   19     -346.725617     -346.725616     -346.730676  0.000054 -6.320349  0.000613

SCF Convergence by DM+H criterion
max |DM_out - DM_in|         :     0.0000541378
max |H_out - H_in|      (eV) :     0.0006129967
SCF cycle converged after 19 iterations

Using DM_out to compute the final energy and forces
No. of atoms with KB's overlaping orbs in proc 0. Max # of overlaps:      50     307

siesta: E_KS(eV) =             -346.7256

siesta: E_KS - E_eggbox =      -346.7256

siesta: Atomic forces (eV/Ang):
----------------------------------------
   Tot    0.004288   -0.002476    0.020244
----------------------------------------
   Max    1.969695
   Res    1.131896    sqrt( Sum f_i^2 / 3N )
----------------------------------------
   Max    1.969695    constrained

Stress-tensor-Voigt (kbar):      226.47      227.73      128.40        1.09        1.65       -2.86
(Free)E + p*V (eV/cell)     -352.7768
Target enthalpy (eV/cell)     -346.7307

siesta: Stress tensor (static) (eV/Ang**3):
         0.141347    0.000682   -0.001788
         0.000682    0.142134    0.001032
        -0.001788    0.001032    0.080138

siesta: Pressure (static):       -194.19582187  kBar

siesta: Stress tensor (total) (eV/Ang**3):
         0.141347    0.000682   -0.001788
         0.000682    0.142134    0.001032
        -0.001788    0.001032    0.080138

siesta: Pressure (total):       -194.19582187  kBar

mulliken: Atomic and Orbital Populations:

Species: B                   
Atom  Qatom  Qorb
               2s      2s      2py     2pz     2px     2py     2pz     2px     
               2Pdxy   2Pdyz   2Pdz2   2Pdxz   2Pdx2-y2
   1  2.902   0.587   0.578   0.300   0.326   0.299   0.228   0.105   0.228
              0.074   0.032   0.038   0.032   0.074

Species: N                   
Atom  Qatom  Qorb
               2s      2s      2py     2pz     2px     2py     2pz     2px     
               2Pdxy   2Pdyz   2Pdz2   2Pdxz   2Pdx2-y2
   2  5.098   1.885   0.046   0.897   1.198   0.899   0.049   0.019   0.049
              0.013   0.009   0.013   0.009   0.013

mulliken: Qtot =        8.000

cgvc: No target stress found, assuming hydrostatic MD.TargetPressure.

cgvc: Target stress (kBar)
cgvc:        -0.000       0.000       0.000
cgvc:         0.000      -0.000       0.000
cgvc:         0.000       0.000      -0.000

                     ====================================
                        Begin CG opt. move =      1
                     ====================================

outcoor: Atomic coordinates (fractional):                   
    0.67067353    0.32932647    0.09412420   1       1  B
    0.32938032    0.67061968    0.90593682   2       2  N
k-point displ. along   1 input, could be:     0.00    0.50
k-point displ. along   2 input, could be:     0.00    0.50
 Kpoints in:           60 . Kpoints trimmed:           56

siesta: k-grid: Number of k-points =    56
siesta: k-grid: Cutoff (effective) =     4.976 Ang
siesta: k-grid: Supercell and displacements
siesta: k-grid:   10   0   0      0.000
siesta: k-grid:    0  10   0      0.000
siesta: k-grid:    0   0   1      0.000

superc: Internal auxiliary supercell:     9 x     9 x     3  =     243
superc: Number of atoms, orbitals, and projectors:    486   6318   7776

outcell: Unit cell vectors (Ang):
        2.379598   -0.000098    0.000258
       -1.189884    2.060743   -0.000258
        0.001075   -0.000621    9.951805

outcell: Cell vector modules (Ang)   :    2.379598    2.379598    9.951805
outcell: Cell angles (23,13,12) (deg):     90.0124     89.9876    120.0047
outcell: Cell volume (Ang**3)        :     48.7999
<dSpData1D:S at geom step 1
  <sparsity:sparsity for geom step 1
    nrows_g=26 nrows=26 sparsity=35.4822 nnzs=23986, refcount: 7>
  <dData1D:(new from dSpData1D) n=23986, refcount: 1>
refcount: 1>
New_DM. Step:     2
Re-using DM from previous geometries...
N DMs in history: 1
 DM extrapolation coefficients: 
1   1.00000
New DM after history re-use:
<dSpData2D:SpM extrapolated using coords
  <sparsity:sparsity for geom step 1
    nrows_g=26 nrows=26 sparsity=35.4822 nnzs=23986, refcount: 8>
  <dData2D:(temp array for extrapolation) n=23986 m=1, refcount: 1>
refcount: 1>
Note: For starting DM, Qtot, Tr[D*S] =          8.00000000          8.04264645
No. of atoms with KB's overlaping orbs in proc 0. Max # of overlaps:      50     307
New grid distribution:   1
           1       1:   10    1:   10    1:   48

InitMesh: MESH =    20 x    20 x    96 =       38400
InitMesh: (bp) =    10 x    10 x    48 =        4800
InitMesh: Mesh cutoff (required, used) =   250.000   257.182 Ry
ExtMesh (bp) on 0 =    86 x    86 x   124 =      917104
PhiOnMesh: Number of (b)points on node 0 =                 4800
PhiOnMesh: nlist on node 0 =               347782

        iscf     Eharris(eV)        E_KS(eV)     FreeEng(eV)     dDmax    Ef(eV) dHmax(eV)
   scf:    1     -344.884295     -346.513932     -346.516364  0.156112 -6.341104  3.674602
   scf:    2     -339.916493     -345.243884     -345.248095  0.347745 -6.149221  7.618103
   scf:    3     -347.157804     -347.091501     -347.094118  0.240878 -6.310988  0.300887
   scf:    4     -347.094520     -347.094252     -347.097332  0.009187 -6.336188  0.106879
   scf:    5     -347.094045     -347.094411     -347.097427  0.003916 -6.343269  0.077038
   scf:    6     -347.093795     -347.094376     -347.097565  0.004424 -6.342653  0.068347
   scf:    7     -347.094604     -347.094522     -347.097681  0.001533 -6.342772  0.019753
   scf:    8     -347.094505     -347.094514     -347.097693  0.000551 -6.341513  0.012056
   scf:    9     -347.094501     -347.094514     -347.097696  0.000752 -6.339246  0.013953
   scf:   10     -347.094494     -347.094507     -347.097699  0.000518 -6.339562  0.004833
   scf:   11     -347.094502     -347.094505     -347.097700  0.000123 -6.338945  0.002617
   scf:   12     -347.094494     -347.094499     -347.097700  0.000147 -6.338160  0.000829
   scf:   13     -347.094496     -347.094497     -347.097700  0.000046 -6.337838  0.000427

SCF Convergence by DM+H criterion
max |DM_out - DM_in|         :     0.0000461580
max |H_out - H_in|      (eV) :     0.0004265602
SCF cycle converged after 13 iterations

Using DM_out to compute the final energy and forces
No. of atoms with KB's overlaping orbs in proc 0. Max # of overlaps:      50     307

siesta: E_KS(eV) =             -347.0945

siesta: Atomic forces (eV/Ang):
----------------------------------------
   Tot   -0.006051    0.003494   -0.001599
----------------------------------------
   Max    1.862105
   Res    1.075642    sqrt( Sum f_i^2 / 3N )
----------------------------------------
   Max    1.862105    constrained

Stress-tensor-Voigt (kbar):      229.73      231.95      113.51        1.92        2.38       -4.12
(Free)E + p*V (eV/cell)     -352.9375
Target enthalpy (eV/cell)     -347.0977

siesta: Stress tensor (static) (eV/Ang**3):
         0.143385    0.001201   -0.002571
         0.001201    0.144771    0.001485
        -0.002571    0.001485    0.070849

siesta: Pressure (static):       -191.73186199  kBar

siesta: Stress tensor (total) (eV/Ang**3):
         0.143385    0.001201   -0.002571
         0.001201    0.144771    0.001485
        -0.002571    0.001485    0.070849

siesta: Pressure (total):       -191.73186199  kBar

mulliken: Atomic and Orbital Populations:

Species: B                   
Atom  Qatom  Qorb
               2s      2s      2py     2pz     2px     2py     2pz     2px     
               2Pdxy   2Pdyz   2Pdz2   2Pdxz   2Pdx2-y2
   1  2.903   0.544   0.588   0.291   0.336   0.294   0.231   0.127   0.231
              0.074   0.036   0.042   0.035   0.075

Species: N                   
Atom  Qatom  Qorb
               2s      2s      2py     2pz     2px     2py     2pz     2px     
               2Pdxy   2Pdyz   2Pdz2   2Pdxz   2Pdx2-y2
   2  5.097   1.882   0.037   0.871   1.236   0.873   0.055   0.025   0.054
              0.014   0.011   0.014   0.011   0.014

mulliken: Qtot =        8.000

                     ====================================
                        Begin CG opt. move =      2
                     ====================================

outcoor: Atomic coordinates (fractional):                   
    0.67175117    0.32824883    0.08472291   1       1  B
    0.32838884    0.67161116    0.91543573   2       2  N
k-point displ. along   1 input, could be:     0.00    0.50
k-point displ. along   2 input, could be:     0.00    0.50
 Kpoints in:           60 . Kpoints trimmed:           56

siesta: k-grid: Number of k-points =    56
siesta: k-grid: Cutoff (effective) =     4.937 Ang
siesta: k-grid: Supercell and displacements
siesta: k-grid:   10   0   0      0.000
siesta: k-grid:    0  10   0      0.000
siesta: k-grid:    0   0   1      0.000

superc: Internal auxiliary supercell:     9 x     9 x     3  =     243
superc: Number of atoms, orbitals, and projectors:    486   6318   7776

outcell: Unit cell vectors (Ang):
        2.346956   -0.000256    0.000671
       -1.173699    2.032395   -0.000671
        0.002796   -0.001614    9.874692

outcell: Cell vector modules (Ang)   :    2.346956    2.346956    9.874693
outcell: Cell angles (23,13,12) (deg):     90.0326     89.9674    120.0125
outcell: Cell volume (Ang**3)        :     47.0987
<dSpData1D:S at geom step 2
  <sparsity:sparsity for geom step 2
    nrows_g=26 nrows=26 sparsity=35.5769 nnzs=24050, refcount: 7>
  <dData1D:(new from dSpData1D) n=24050, refcount: 1>
refcount: 1>
New_DM. Step:     3
Re-using DM from previous geometries...
N DMs in history: 1
 DM extrapolation coefficients: 
1   1.00000
New DM after history re-use:
<dSpData2D:SpM extrapolated using coords
  <sparsity:sparsity for geom step 2
    nrows_g=26 nrows=26 sparsity=35.5769 nnzs=24050, refcount: 8>
  <dData2D:(temp array for extrapolation) n=24050 m=1, refcount: 1>
refcount: 1>
Note: For starting DM, Qtot, Tr[D*S] =          8.00000000          8.05279690
No. of atoms with KB's overlaping orbs in proc 0. Max # of overlaps:      50     307
New grid distribution:   1
           1       1:   10    1:   10    1:   48

InitMesh: MESH =    20 x    20 x    96 =       38400
InitMesh: (bp) =    10 x    10 x    48 =        4800
InitMesh: Mesh cutoff (required, used) =   250.000   261.214 Ry
ExtMesh (bp) on 0 =    90 x    90 x   124 =     1004400
PhiOnMesh: Number of (b)points on node 0 =                 4800
PhiOnMesh: nlist on node 0 =               359838

        iscf     Eharris(eV)        E_KS(eV)     FreeEng(eV)     dDmax    Ef(eV) dHmax(eV)
   scf:    1     -339.371139     -345.254726     -345.258651  0.179912 -6.473843  8.172144
   scf:    2     -314.047505     -338.926204     -338.930477  0.379424 -6.012473 16.475378
   scf:    3     -349.099257     -347.648215     -347.653904  0.283322 -6.292169  0.909062
   scf:    4     -347.675457     -347.671875     -347.675682  0.016132 -6.358177  0.054980
   scf:    5     -347.671827     -347.671917     -347.675891  0.001815 -6.360211  0.045777
   scf:    6     -347.671986     -347.672017     -347.675930  0.002349 -6.363328  0.048486
   scf:    7     -347.671886     -347.671973     -347.675992  0.000853 -6.361646  0.011259
   scf:    8     -347.671917     -347.671946     -347.676010  0.001436 -6.361321  0.013050
   scf:    9     -347.671845     -347.671898     -347.676015  0.000558 -6.360378  0.009523
   scf:   10     -347.671904     -347.671903     -347.676020  0.000633 -6.360490  0.008686
   scf:   11     -347.671863     -347.671883     -347.676023  0.000355 -6.360084  0.004412
   scf:   12     -347.671843     -347.671863     -347.676025  0.000620 -6.359685  0.004341
   scf:   13     -347.671821     -347.671843     -347.676024  0.000145 -6.359267  0.004423
   scf:   14     -347.671857     -347.671850     -347.676025  0.000129 -6.359406  0.001970
   scf:   15     -347.671840     -347.671845     -347.676025  0.000110 -6.359295  0.001165
   scf:   16     -347.671831     -347.671838     -347.676025  0.000196 -6.359139  0.000678
   scf:   17     -347.671826     -347.671832     -347.676025  0.000092 -6.359004  0.000938

SCF Convergence by DM+H criterion
max |DM_out - DM_in|         :     0.0000918683
max |H_out - H_in|      (eV) :     0.0009375806
SCF cycle converged after 17 iterations

Using DM_out to compute the final energy and forces
No. of atoms with KB's overlaping orbs in proc 0. Max # of overlaps:      50     307

siesta: E_KS(eV) =             -347.6718

siesta: Atomic forces (eV/Ang):
----------------------------------------
   Tot   -0.005151    0.002974    0.032563
----------------------------------------
   Max    2.266131
   Res    1.300980    sqrt( Sum f_i^2 / 3N )
----------------------------------------
   Max    2.266131    constrained

Stress-tensor-Voigt (kbar):      201.00      202.90      128.35        1.64        3.49       -6.05
(Free)E + p*V (eV/cell)     -352.8915
Target enthalpy (eV/cell)     -347.6760

siesta: Stress tensor (static) (eV/Ang**3):
         0.125454    0.001026   -0.003773
         0.001026    0.126638    0.002178
        -0.003773    0.002178    0.080111

siesta: Pressure (static):       -177.41795867  kBar

siesta: Stress tensor (total) (eV/Ang**3):
         0.125454    0.001026   -0.003773
         0.001026    0.126638    0.002178
        -0.003773    0.002178    0.080111

siesta: Pressure (total):       -177.41795867  kBar

mulliken: Atomic and Orbital Populations:

Species: B                   
Atom  Qatom  Qorb
               2s      2s      2py     2pz     2px     2py     2pz     2px     
               2Pdxy   2Pdyz   2Pdz2   2Pdxz   2Pdx2-y2
   1  2.921   0.474   0.592   0.273   0.354   0.272   0.247   0.175   0.248
              0.076   0.044   0.049   0.043   0.076

Species: N                   
Atom  Qatom  Qorb
               2s      2s      2py     2pz     2px     2py     2pz     2px     
               2Pdxy   2Pdyz   2Pdz2   2Pdxz   2Pdx2-y2
   2  5.079   1.849   0.041   0.891   1.153   0.892   0.067   0.043   0.065
              0.017   0.013   0.017   0.013   0.017

mulliken: Qtot =        8.000

                     ====================================
                        Begin CG opt. move =      3
                     ====================================

outcoor: Atomic coordinates (fractional):                   
    0.67295186    0.32704814    0.07424815   1       1  B
    0.32728415    0.67271585    0.92601927   2       2  N
k-point displ. along   1 input, could be:     0.00    0.50
k-point displ. along   2 input, could be:     0.00    0.50
 Kpoints in:           60 . Kpoints trimmed:           56

siesta: k-grid: Number of k-points =    56
siesta: k-grid: Cutoff (effective) =     4.894 Ang
siesta: k-grid: Supercell and displacements
siesta: k-grid:   10   0   0      0.000
siesta: k-grid:    0  10   0      0.000
siesta: k-grid:    0   0   1      0.000

superc: Internal auxiliary supercell:     9 x     9 x     3  =     243
superc: Number of atoms, orbitals, and projectors:    486   6318   7776

outcell: Unit cell vectors (Ang):
        2.310586   -0.000431    0.001131
       -1.155666    2.000810   -0.001131
        0.004713   -0.002721    9.788775

outcell: Cell vector modules (Ang)   :    2.310586    2.310586    9.788776
outcell: Cell angles (23,13,12) (deg):     90.0556     89.9444    120.0214
outcell: Cell volume (Ang**3)        :     45.2490
<dSpData1D:S at geom step 3
  <sparsity:sparsity for geom step 3
    nrows_g=26 nrows=26 sparsity=35.5769 nnzs=24050, refcount: 7>
  <dData1D:(new from dSpData1D) n=24050, refcount: 1>
refcount: 1>
New_DM. Step:     4
Re-using DM from previous geometries...
N DMs in history: 1
 DM extrapolation coefficients: 
1   1.00000
New DM after history re-use:
<dSpData2D:SpM extrapolated using coords
  <sparsity:sparsity for geom step 3
    nrows_g=26 nrows=26 sparsity=35.5769 nnzs=24050, refcount: 8>
  <dData2D:(temp array for extrapolation) n=24050 m=1, refcount: 1>
refcount: 1>
Note: For starting DM, Qtot, Tr[D*S] =          8.00000000          8.05329494
No. of atoms with KB's overlaping orbs in proc 0. Max # of overlaps:      50     307
New grid distribution:   1
           1       1:   10    1:   10    1:   48

InitMesh: MESH =    20 x    20 x    96 =       38400
InitMesh: (bp) =    10 x    10 x    48 =        4800
InitMesh: Mesh cutoff (required, used) =   250.000   265.820 Ry
ExtMesh (bp) on 0 =    90 x    90 x   124 =     1004400
PhiOnMesh: Number of (b)points on node 0 =                 4800
PhiOnMesh: nlist on node 0 =               374434

        iscf     Eharris(eV)        E_KS(eV)     FreeEng(eV)     dDmax    Ef(eV) dHmax(eV)
   scf:    1     -338.940921     -345.750956     -345.757194  0.198634 -6.439842  8.428695
   scf:    2     -315.747838     -340.049936     -340.054254  0.430519 -5.948341 16.078135
   scf:    3     -349.681478     -348.422900     -348.426303  0.236154 -6.274089  0.686585
   scf:    4     -348.438589     -348.432845     -348.436293  0.006675 -6.311623  0.227144
   scf:    5     -348.434637     -348.434085     -348.437632  0.003516 -6.334096  0.034398
   scf:    6     -348.434090     -348.434116     -348.437695  0.001906 -6.336511  0.018753
   scf:    7     -348.434148     -348.434134     -348.437705  0.000382 -6.335603  0.007617
   scf:    8     -348.434143     -348.434139     -348.437712  0.000696 -6.335402  0.004816
   scf:    9     -348.434149     -348.434145     -348.437716  0.000518 -6.335255  0.004826
   scf:   10     -348.434139     -348.434142     -348.437717  0.000164 -6.335291  0.003404
   scf:   11     -348.434145     -348.434144     -348.437718  0.000173 -6.335271  0.001744
   scf:   12     -348.434144     -348.434144     -348.437718  0.000273 -6.335288  0.001303
   scf:   13     -348.434147     -348.434145     -348.437718  0.000181 -6.335324  0.001711
   scf:   14     -348.434144     -348.434145     -348.437718  0.000055 -6.335334  0.000525

SCF Convergence by DM+H criterion
max |DM_out - DM_in|         :     0.0000554898
max |H_out - H_in|      (eV) :     0.0005245533
SCF cycle converged after 14 iterations

Using DM_out to compute the final energy and forces
No. of atoms with KB's overlaping orbs in proc 0. Max # of overlaps:      50     307

siesta: E_KS(eV) =             -348.4341

siesta: Atomic forces (eV/Ang):
----------------------------------------
   Tot   -0.001206    0.000697    0.057509
----------------------------------------
   Max    3.216634
   Res    1.844237    sqrt( Sum f_i^2 / 3N )
----------------------------------------
   Max    3.216634    constrained

Stress-tensor-Voigt (kbar):      148.12      157.17      164.71        7.84        5.28       -9.14
(Free)E + p*V (eV/cell)     -352.8622
Target enthalpy (eV/cell)     -348.4377

siesta: Stress tensor (static) (eV/Ang**3):
         0.092445    0.004894   -0.005706
         0.004894    0.098097    0.003295
        -0.005706    0.003295    0.102801

siesta: Pressure (static):       -156.66399653  kBar

siesta: Stress tensor (total) (eV/Ang**3):
         0.092445    0.004894   -0.005706
         0.004894    0.098097    0.003295
        -0.005706    0.003295    0.102801

siesta: Pressure (total):       -156.66399653  kBar

mulliken: Atomic and Orbital Populations:

Species: B                   
Atom  Qatom  Qorb
               2s      2s      2py     2pz     2px     2py     2pz     2px     
               2Pdxy   2Pdyz   2Pdz2   2Pdxz   2Pdx2-y2
   1  2.984   0.422   0.563   0.231   0.381   0.232   0.288   0.248   0.288
              0.077   0.062   0.057   0.060   0.076

Species: N                   
Atom  Qatom  Qorb
               2s      2s      2py     2pz     2px     2py     2pz     2px     
               2Pdxy   2Pdyz   2Pdz2   2Pdxz   2Pdx2-y2
   2  5.016   1.694   0.121   0.870   1.093   0.873   0.095   0.086   0.090
              0.021   0.016   0.020   0.016   0.021

mulliken: Qtot =        8.000

                     ====================================
                        Begin CG opt. move =      4
                     ====================================

outcoor: Atomic coordinates (fractional):                   
    0.67415255    0.32584745    0.06377338   1       1  B
    0.32617945    0.67382054    0.93660281   2       2  N
k-point displ. along   1 input, could be:     0.00    0.50
k-point displ. along   2 input, could be:     0.00    0.50
 Kpoints in:           60 . Kpoints trimmed:           56

siesta: k-grid: Number of k-points =    56
siesta: k-grid: Cutoff (effective) =     4.851 Ang
siesta: k-grid: Supercell and displacements
siesta: k-grid:   10   0   0      0.000
siesta: k-grid:    0  10   0      0.000
siesta: k-grid:    0   0   1      0.000

superc: Internal auxiliary supercell:     9 x     9 x     3  =     243
superc: Number of atoms, orbitals, and projectors:    486   6318   7776

outcell: Unit cell vectors (Ang):
        2.274216   -0.000607    0.001591
       -1.137633    1.969225   -0.001591
        0.006629   -0.003828    9.702857

outcell: Cell vector modules (Ang)   :    2.274216    2.274216    9.702860
outcell: Cell angles (23,13,12) (deg):     90.0792     89.9208    120.0306
outcell: Cell volume (Ang**3)        :     43.4470
<dSpData1D:S at geom step 4
  <sparsity:sparsity for geom step 4
    nrows_g=26 nrows=26 sparsity=37.3136 nnzs=25224, refcount: 7>
  <dData1D:(new from dSpData1D) n=25224, refcount: 1>
refcount: 1>
New_DM. Step:     5
Re-using DM from previous geometries...
N DMs in history: 1
 DM extrapolation coefficients: 
1   1.00000
New DM after history re-use:
<dSpData2D:SpM extrapolated using coords
  <sparsity:sparsity for geom step 4
    nrows_g=26 nrows=26 sparsity=37.3136 nnzs=25224, refcount: 8>
  <dData2D:(temp array for extrapolation) n=25224 m=1, refcount: 1>
refcount: 1>
Note: For starting DM, Qtot, Tr[D*S] =          8.00000000          8.06423271
No. of atoms with KB's overlaping orbs in proc 0. Max # of overlaps:      50     321
New grid distribution:   1
           1       1:   10    1:   10    1:   48

InitMesh: MESH =    20 x    20 x    96 =       38400
InitMesh: (bp) =    10 x    10 x    48 =        4800
InitMesh: Mesh cutoff (required, used) =   250.000   270.549 Ry
ExtMesh (bp) on 0 =    90 x    90 x   128 =     1036800
PhiOnMesh: Number of (b)points on node 0 =                 4800
PhiOnMesh: nlist on node 0 =               389587

        iscf     Eharris(eV)        E_KS(eV)     FreeEng(eV)     dDmax    Ef(eV) dHmax(eV)
   scf:    1     -340.496501     -346.979239     -346.984076  0.403894 -6.466823  8.401035
   scf:    2     -329.412374     -344.513245     -344.517384  0.430910 -6.093281 12.188176
   scf:    3     -350.220962     -349.342315     -349.349087  0.206393 -6.280905  0.736605
   scf:    4     -349.341816     -349.353389     -349.360349  0.032389 -6.333350  0.231472
   scf:    5     -349.350818     -349.354674     -349.361818  0.010982 -6.330023  0.182821
   scf:    6     -349.355921     -349.355565     -349.362702  0.005570 -6.337112  0.046283
   scf:    7     -349.355647     -349.355607     -349.362770  0.001757 -6.341172  0.039137
   scf:    8     -349.354846     -349.355442     -349.362588  0.005970 -6.349136  0.087589
   scf:    9     -349.355516     -349.355648     -349.362827  0.004249 -6.344838  0.022209
   scf:   10     -349.355662     -349.355655     -349.362842  0.000762 -6.346673  0.014229
   scf:   11     -349.355643     -349.355650     -349.362850  0.001216 -6.350249  0.005871
   scf:   12     -349.355644     -349.355648     -349.362848  0.000600 -6.351996  0.006157
   scf:   13     -349.355652     -349.355651     -349.362850  0.000422 -6.351177  0.001283
   scf:   14     -349.355652     -349.355652     -349.362850  0.000041 -6.351346  0.000521

SCF Convergence by DM+H criterion
max |DM_out - DM_in|         :     0.0000413476
max |H_out - H_in|      (eV) :     0.0005214015
SCF cycle converged after 14 iterations

Using DM_out to compute the final energy and forces
No. of atoms with KB's overlaping orbs in proc 0. Max # of overlaps:      50     321

siesta: E_KS(eV) =             -349.3557

siesta: Atomic forces (eV/Ang):
----------------------------------------
   Tot   -0.003128    0.001806    0.077111
----------------------------------------
   Max    4.339877
   Res    2.486341    sqrt( Sum f_i^2 / 3N )
----------------------------------------
   Max    4.339877    constrained

Stress-tensor-Voigt (kbar):       62.46       68.93      197.19        5.60        4.67       -8.09
(Free)E + p*V (eV/cell)     -352.3329
Target enthalpy (eV/cell)     -349.3629

siesta: Stress tensor (static) (eV/Ang**3):
         0.038982    0.003497   -0.005050
         0.003497    0.043021    0.002916
        -0.005050    0.002916    0.123078

siesta: Pressure (static):       -109.52635690  kBar

siesta: Stress tensor (total) (eV/Ang**3):
         0.038982    0.003497   -0.005050
         0.003497    0.043021    0.002916
        -0.005050    0.002916    0.123078

siesta: Pressure (total):       -109.52635690  kBar

mulliken: Atomic and Orbital Populations:

Species: B                   
Atom  Qatom  Qorb
               2s      2s      2py     2pz     2px     2py     2pz     2px     
               2Pdxy   2Pdyz   2Pdz2   2Pdxz   2Pdx2-y2
   1  3.113   0.427   0.503   0.203   0.403   0.193   0.354   0.290   0.353
              0.078   0.087   0.064   0.083   0.076

Species: N                   
Atom  Qatom  Qorb
               2s      2s      2py     2pz     2px     2py     2pz     2px     
               2Pdxy   2Pdyz   2Pdz2   2Pdxz   2Pdx2-y2
   2  4.887   1.381   0.303   0.827   0.984   0.825   0.158   0.150   0.147
              0.025   0.019   0.024   0.019   0.025

mulliken: Qtot =        8.000

                     ====================================
                        Begin CG opt. move =      5
                     ====================================

outcoor: Atomic coordinates (fractional):                   
    0.67535324    0.32464676    0.05329862   1       1  B
    0.32507476    0.67492523    0.94718635   2       2  N
k-point displ. along   1 input, could be:     0.00    0.50
k-point displ. along   2 input, could be:     0.00    0.50
 Kpoints in:           60 . Kpoints trimmed:           56

siesta: k-grid: Number of k-points =    56
siesta: k-grid: Cutoff (effective) =     4.808 Ang
siesta: k-grid: Supercell and displacements
siesta: k-grid:   10   0   0      0.000
siesta: k-grid:    0  10   0      0.000
siesta: k-grid:    0   0   1      0.000

superc: Internal auxiliary supercell:     9 x     9 x     3  =     243
superc: Number of atoms, orbitals, and projectors:    486   6318   7776

outcell: Unit cell vectors (Ang):
        2.237846   -0.000782    0.002051
       -1.119600    1.937640   -0.002051
        0.008546   -0.004934    9.616940

outcell: Cell vector modules (Ang)   :    2.237847    2.237847    9.616945
outcell: Cell angles (23,13,12) (deg):     90.1034     89.8966    120.0401
outcell: Cell volume (Ang**3)        :     41.6919
<dSpData1D:S at geom step 5
  <sparsity:sparsity for geom step 5
    nrows_g=26 nrows=26 sparsity=38.3106 nnzs=25898, refcount: 7>
  <dData1D:(new from dSpData1D) n=25898, refcount: 1>
refcount: 1>
New_DM. Step:     6
Re-using DM from previous geometries...
N DMs in history: 1
 DM extrapolation coefficients: 
1   1.00000
New DM after history re-use:
<dSpData2D:SpM extrapolated using coords
  <sparsity:sparsity for geom step 5
    nrows_g=26 nrows=26 sparsity=38.3106 nnzs=25898, refcount: 8>
  <dData2D:(temp array for extrapolation) n=25898 m=1, refcount: 1>
refcount: 1>
Note: For starting DM, Qtot, Tr[D*S] =          8.00000000          8.09039430
No. of atoms with KB's overlaping orbs in proc 0. Max # of overlaps:      54     331
New grid distribution:   1
           1       1:   10    1:   10    1:   48

InitMesh: MESH =    20 x    20 x    96 =       38400
InitMesh: (bp) =    10 x    10 x    48 =        4800
InitMesh: Mesh cutoff (required, used) =   250.000   275.405 Ry
ExtMesh (bp) on 0 =    90 x    90 x   128 =     1036800
PhiOnMesh: Number of (b)points on node 0 =                 4800
PhiOnMesh: nlist on node 0 =               405296

        iscf     Eharris(eV)        E_KS(eV)     FreeEng(eV)     dDmax    Ef(eV) dHmax(eV)
   scf:    1     -344.444813     -349.022083     -349.024228  0.406773 -6.966687  6.773130
   scf:    2     -345.323936     -349.325647     -349.327030  0.196840 -6.190358  5.085170
   scf:    3     -350.432623     -350.428665     -350.431697  0.090692 -6.460306  0.448280
   scf:    4     -350.437164     -350.434342     -350.437305  0.004210 -6.421193  0.117724
   scf:    5     -350.435256     -350.434889     -350.437818  0.003394 -6.406189  0.022321
   scf:    6     -350.435071     -350.434984     -350.437902  0.001854 -6.405102  0.020355
   scf:    7     -350.435027     -350.435006     -350.437921  0.000670 -6.406485  0.018558
   scf:    8     -350.435081     -350.435046     -350.437954  0.002337 -6.413575  0.008570
   scf:    9     -350.435050     -350.435049     -350.437953  0.000975 -6.418704  0.006328
   scf:   10     -350.435048     -350.435049     -350.437954  0.000136 -6.420037  0.002786
   scf:   11     -350.435049     -350.435049     -350.437955  0.000171 -6.420052  0.001782
   scf:   12     -350.435049     -350.435049     -350.437955  0.000071 -6.420225  0.000799

SCF Convergence by DM+H criterion
max |DM_out - DM_in|         :     0.0000705213
max |H_out - H_in|      (eV) :     0.0007986174
SCF cycle converged after 12 iterations

Using DM_out to compute the final energy and forces
No. of atoms with KB's overlaping orbs in proc 0. Max # of overlaps:      54     331

siesta: E_KS(eV) =             -350.4350

siesta: Atomic forces (eV/Ang):
----------------------------------------
   Tot   -0.001352    0.000781    0.066486
----------------------------------------
   Max    5.176139
   Res    2.969351    sqrt( Sum f_i^2 / 3N )
----------------------------------------
   Max    5.176139    constrained

Stress-tensor-Voigt (kbar):      -66.78      -73.03      203.22       -5.41       -0.45        0.77
(Free)E + p*V (eV/cell)     -350.9880
Target enthalpy (eV/cell)     -350.4380

siesta: Stress tensor (static) (eV/Ang**3):
        -0.041682   -0.003376    0.000483
        -0.003376   -0.045580   -0.000279
         0.000483   -0.000279    0.126842

siesta: Pressure (static):        -21.13805185  kBar

siesta: Stress tensor (total) (eV/Ang**3):
        -0.041682   -0.003376    0.000483
        -0.003376   -0.045580   -0.000279
         0.000483   -0.000279    0.126842

siesta: Pressure (total):        -21.13805185  kBar

mulliken: Atomic and Orbital Populations:

Species: B                   
Atom  Qatom  Qorb
               2s      2s      2py     2pz     2px     2py     2pz     2px     
               2Pdxy   2Pdyz   2Pdz2   2Pdxz   2Pdx2-y2
   1  3.264   0.502   0.416   0.213   0.416   0.204   0.406   0.263   0.403
              0.084   0.103   0.072   0.099   0.082

Species: N                   
Atom  Qatom  Qorb
               2s      2s      2py     2pz     2px     2py     2pz     2px     
               2Pdxy   2Pdyz   2Pdz2   2Pdxz   2Pdx2-y2
   2  4.736   1.028   0.486   0.759   0.835   0.758   0.260   0.240   0.240
              0.029   0.022   0.028   0.022   0.029

mulliken: Qtot =        8.000

                     ====================================
                        Begin CG opt. move =      6
                     ====================================

outcoor: Atomic coordinates (fractional):                   
    0.67655393    0.32344607    0.04282385   1       1  B
    0.32397006    0.67602992    0.95776989   2       2  N
k-point displ. along   1 input, could be:     0.00    0.50
k-point displ. along   2 input, could be:     0.00    0.50
 Kpoints in:           60 . Kpoints trimmed:           56

siesta: k-grid: Number of k-points =    56
siesta: k-grid: Cutoff (effective) =     4.766 Ang
siesta: k-grid: Supercell and displacements
siesta: k-grid:   10   0   0      0.000
siesta: k-grid:    0  10   0      0.000
siesta: k-grid:    0   0   1      0.000

superc: Internal auxiliary supercell:     9 x     9 x     3  =     243
superc: Number of atoms, orbitals, and projectors:    486   6318   7776

outcell: Unit cell vectors (Ang):
        2.201476   -0.000958    0.002511
       -1.101567    1.906055   -0.002511
        0.010463   -0.006041    9.531022

outcell: Cell vector modules (Ang)   :    2.201478    2.201478    9.531030
outcell: Cell angles (23,13,12) (deg):     90.1283     89.8717    120.0499
outcell: Cell volume (Ang**3)        :     39.9833
<dSpData1D:S at geom step 6
  <sparsity:sparsity for geom step 6
    nrows_g=26 nrows=26 sparsity=40.8669 nnzs=27626, refcount: 7>
  <dData1D:(new from dSpData1D) n=27626, refcount: 1>
refcount: 1>
New_DM. Step:     7
Re-using DM from previous geometries...
N DMs in history: 1
 DM extrapolation coefficients: 
1   1.00000
New DM after history re-use:
<dSpData2D:SpM extrapolated using coords
  <sparsity:sparsity for geom step 6
    nrows_g=26 nrows=26 sparsity=40.8669 nnzs=27626, refcount: 8>
  <dData2D:(temp array for extrapolation) n=27626 m=1, refcount: 1>
refcount: 1>
Note: For starting DM, Qtot, Tr[D*S] =          8.00000000          8.11908118
No. of atoms with KB's overlaping orbs in proc 0. Max # of overlaps:      62     331
New grid distribution:   1
           1       1:   10    1:   10    1:   48

InitMesh: MESH =    20 x    20 x    96 =       38400
InitMesh: (bp) =    10 x    10 x    48 =        4800
InitMesh: Mesh cutoff (required, used) =   250.000   280.393 Ry
ExtMesh (bp) on 0 =    94 x    94 x   128 =     1131008
PhiOnMesh: Number of (b)points on node 0 =                 4800
PhiOnMesh: nlist on node 0 =               422335

        iscf     Eharris(eV)        E_KS(eV)     FreeEng(eV)     dDmax    Ef(eV) dHmax(eV)
   scf:    1     -347.461794     -350.649832     -350.652116  0.288789 -7.003675  5.401403
   scf:    2     -349.777817     -351.051618     -351.054665  0.109374 -6.161655  2.193081
   scf:    3     -351.272440     -351.358574     -351.361341  0.067083 -6.244891  1.060825
   scf:    4     -351.385755     -351.377353     -351.380731  0.018003 -6.138577  0.252388
   scf:    5     -351.379299     -351.378578     -351.381980  0.009082 -6.099084  0.058552
   scf:    6     -351.378677     -351.378710     -351.382100  0.002367 -6.091581  0.046609
   scf:    7     -351.378768     -351.378746     -351.382139  0.000590 -6.093737  0.026192
   scf:    8     -351.378802     -351.378775     -351.382166  0.000939 -6.094864  0.021381
   scf:    9     -351.378779     -351.378787     -351.382177  0.002598 -6.101511  0.009259
   scf:   10     -351.378799     -351.378796     -351.382186  0.000946 -6.100166  0.006502
   scf:   11     -351.378796     -351.378796     -351.382186  0.000184 -6.101403  0.003522
   scf:   12     -351.378796     -351.378796     -351.382186  0.000049 -6.102512  0.001780
   scf:   13     -351.378796     -351.378796     -351.382186  0.000081 -6.103177  0.000857

SCF Convergence by DM+H criterion
max |DM_out - DM_in|         :     0.0000807716
max |H_out - H_in|      (eV) :     0.0008573588
SCF cycle converged after 13 iterations

Using DM_out to compute the final energy and forces
No. of atoms with KB's overlaping orbs in proc 0. Max # of overlaps:      62     331

siesta: E_KS(eV) =             -351.3788

siesta: Atomic forces (eV/Ang):
----------------------------------------
   Tot    0.007495   -0.004327    0.044555
----------------------------------------
   Max    5.061341
   Res    2.934653    sqrt( Sum f_i^2 / 3N )
----------------------------------------
   Max    5.061341    constrained

Stress-tensor-Voigt (kbar):     -263.86     -296.37      165.16      -28.15      -10.71       18.55
(Free)E + p*V (eV/cell)     -348.0959
Target enthalpy (eV/cell)     -351.3822

siesta: Stress tensor (static) (eV/Ang**3):
        -0.164685   -0.017572    0.011581
        -0.017572   -0.184975   -0.006686
         0.011579   -0.006685    0.103084

siesta: Pressure (static):        131.68753917  kBar

siesta: Stress tensor (total) (eV/Ang**3):
        -0.164685   -0.017572    0.011581
        -0.017572   -0.184975   -0.006686
         0.011579   -0.006685    0.103084

siesta: Pressure (total):        131.68753917  kBar

mulliken: Atomic and Orbital Populations:

Species: B                   
Atom  Qatom  Qorb
               2s      2s      2py     2pz     2px     2py     2pz     2px     
               2Pdxy   2Pdyz   2Pdz2   2Pdxz   2Pdx2-y2
   1  3.409   0.575   0.355   0.291   0.418   0.273   0.399   0.224   0.397
              0.093   0.114   0.074   0.108   0.089

Species: N                   
Atom  Qatom  Qorb
               2s      2s      2py     2pz     2px     2py     2pz     2px     
               2Pdxy   2Pdyz   2Pdz2   2Pdxz   2Pdx2-y2
   2  4.591   0.694   0.630   0.660   0.666   0.662   0.401   0.368   0.370
              0.032   0.023   0.030   0.023   0.032

mulliken: Qtot =        8.000

                     ====================================
                        Begin CG opt. move =      7
                     ====================================

outcoor: Atomic coordinates (fractional):                   
    0.67775462    0.32224538    0.03234909   1       1  B
    0.32286537    0.67713462    0.96835343   2       2  N
k-point displ. along   1 input, could be:     0.00    0.50
k-point displ. along   2 input, could be:     0.00    0.50
 Kpoints in:           60 . Kpoints trimmed:           56

siesta: k-grid: Number of k-points =    56
siesta: k-grid: Cutoff (effective) =     4.723 Ang
siesta: k-grid: Supercell and displacements
siesta: k-grid:   10   0   0      0.000
siesta: k-grid:    0  10   0      0.000
siesta: k-grid:    0   0   1      0.000

superc: Internal auxiliary supercell:     9 x     9 x     3  =     243
superc: Number of atoms, orbitals, and projectors:    486   6318   7776

outcell: Unit cell vectors (Ang):
        2.165106   -0.001133    0.002971
       -1.083534    1.874470   -0.002971
        0.012380   -0.007148    9.445105

outcell: Cell vector modules (Ang)   :    2.165108    2.165108    9.445116
outcell: Cell angles (23,13,12) (deg):     90.1538     89.8462    120.0600
outcell: Cell volume (Ang**3)        :     38.3206
<dSpData1D:S at geom step 7
  <sparsity:sparsity for geom step 7
    nrows_g=26 nrows=26 sparsity=44.1420 nnzs=29840, refcount: 7>
  <dData1D:(new from dSpData1D) n=29840, refcount: 1>
refcount: 1>
New_DM. Step:     8
Re-using DM from previous geometries...
N DMs in history: 1
 DM extrapolation coefficients: 
1   1.00000
New DM after history re-use:
<dSpData2D:SpM extrapolated using coords
  <sparsity:sparsity for geom step 7
    nrows_g=26 nrows=26 sparsity=44.1420 nnzs=29840, refcount: 8>
  <dData2D:(temp array for extrapolation) n=29840 m=1, refcount: 1>
refcount: 1>
Note: For starting DM, Qtot, Tr[D*S] =          8.00000000          8.13540104
No. of atoms with KB's overlaping orbs in proc 0. Max # of overlaps:      62     349
New grid distribution:   1
           1       1:    9    1:    9    1:   45

InitMesh: MESH =    18 x    18 x    90 =       29160
InitMesh: (bp) =     9 x     9 x    45 =        3645
InitMesh: Mesh cutoff (required, used) =   250.000   250.944 Ry
ExtMesh (bp) on 0 =    85 x    85 x   121 =      874225
PhiOnMesh: Number of (b)points on node 0 =                 3645
PhiOnMesh: nlist on node 0 =               336539

        iscf     Eharris(eV)        E_KS(eV)     FreeEng(eV)     dDmax    Ef(eV) dHmax(eV)
   scf:    1     -348.544646     -351.388323     -351.388329  0.504023 -6.588305  6.056128
   scf:    2     -351.428762     -351.927479     -351.927480  0.098275 -5.916634  1.611868
   scf:    3     -352.014285     -352.062045     -352.062047  0.060720 -5.822047  1.269059
   scf:    4     -352.086438     -352.079289     -352.079290  0.013341 -5.672033  0.509259
   scf:    5     -352.082552     -352.081628     -352.081632  0.016180 -5.530123  0.300775
   scf:    6     -352.081483     -352.082604     -352.082616  0.007859 -5.445752  0.070968
   scf:    7     -352.082853     -352.082950     -352.082960  0.002196 -5.456763  0.045692
   scf:    8     -352.083010     -352.082986     -352.082997  0.000970 -5.450057  0.017863
   scf:    9     -352.083007     -352.082997     -352.083009  0.000948 -5.446015  0.005086
   scf:   10     -352.083002     -352.082999     -352.083013  0.000420 -5.445162  0.003318
   scf:   11     -352.083001     -352.083000     -352.083013  0.000165 -5.445274  0.002603
   scf:   12     -352.083001     -352.083000     -352.083014  0.000446 -5.445716  0.001725
   scf:   13     -352.083000     -352.083000     -352.083014  0.000053 -5.446062  0.000887

SCF Convergence by DM+H criterion
max |DM_out - DM_in|         :     0.0000525928
max |H_out - H_in|      (eV) :     0.0008874750
SCF cycle converged after 13 iterations

Using DM_out to compute the final energy and forces
No. of atoms with KB's overlaping orbs in proc 0. Max # of overlaps:      62     349

siesta: E_KS(eV) =             -352.0830

siesta: Atomic forces (eV/Ang):
----------------------------------------
   Tot    0.003412   -0.001970    0.020951
----------------------------------------
   Max    4.962733
   Res    3.085031    sqrt( Sum f_i^2 / 3N )
----------------------------------------
   Max    4.962733    constrained

Stress-tensor-Voigt (kbar):     -578.85     -659.85      125.06      -70.15      -25.28       43.79
(Free)E + p*V (eV/cell)     -343.2045
Target enthalpy (eV/cell)     -352.0830

siesta: Stress tensor (static) (eV/Ang**3):
        -0.361286   -0.043784    0.027333
        -0.043784   -0.411843   -0.015780
         0.027332   -0.015780    0.078055

siesta: Pressure (static):        371.21451835  kBar

siesta: Stress tensor (total) (eV/Ang**3):
        -0.361286   -0.043784    0.027333
        -0.043784   -0.411843   -0.015780
         0.027332   -0.015780    0.078055

siesta: Pressure (total):        371.21451835  kBar

mulliken: Atomic and Orbital Populations:

Species: B                   
Atom  Qatom  Qorb
               2s      2s      2py     2pz     2px     2py     2pz     2px     
               2Pdxy   2Pdyz   2Pdz2   2Pdxz   2Pdx2-y2
   1  3.523   0.659   0.288   0.404   0.388   0.372   0.351   0.214   0.351
              0.105   0.121   0.054   0.113   0.101

Species: N                   
Atom  Qatom  Qorb
               2s      2s      2py     2pz     2px     2py     2pz     2px     
               2Pdxy   2Pdyz   2Pdz2   2Pdxz   2Pdx2-y2
   2  4.477   0.367   0.767   0.547   0.535   0.551   0.582   0.457   0.534
              0.034   0.021   0.027   0.021   0.034

mulliken: Qtot =        8.000

                     ====================================
                        Begin CG opt. move =      8
                     ====================================

outcoor: Atomic coordinates (fractional):                   
    0.67895531    0.32104469    0.02187432   1       1  B
    0.32176068    0.67823931    0.97893697   2       2  N
k-point displ. along   1 input, could be:     0.00    0.50
k-point displ. along   2 input, could be:     0.00    0.50
 Kpoints in:           60 . Kpoints trimmed:           56

siesta: k-grid: Number of k-points =    56
siesta: k-grid: Cutoff (effective) =     4.680 Ang
siesta: k-grid: Supercell and displacements
siesta: k-grid:   10   0   0      0.000
siesta: k-grid:    0  10   0      0.000
siesta: k-grid:    0   0   1      0.000

superc: Internal auxiliary supercell:     9 x     9 x     3  =     243
superc: Number of atoms, orbitals, and projectors:    486   6318   7776

outcell: Unit cell vectors (Ang):
        2.128736   -0.001309    0.003431
       -1.065501    1.842885   -0.003431
        0.014297   -0.008254    9.359187

outcell: Cell vector modules (Ang)   :    2.128739    2.128739    9.359202
outcell: Cell angles (23,13,12) (deg):     90.1799     89.8201    120.0705
outcell: Cell volume (Ang**3)        :     36.7031
<dSpData1D:S at geom step 8
  <sparsity:sparsity for geom step 8
    nrows_g=26 nrows=26 sparsity=44.4024 nnzs=30016, refcount: 7>
  <dData1D:(new from dSpData1D) n=30016, refcount: 1>
refcount: 1>
New_DM. Step:     9
Re-using DM from previous geometries...
N DMs in history: 1
 DM extrapolation coefficients: 
1   1.00000
New DM after history re-use:
<dSpData2D:SpM extrapolated using coords
  <sparsity:sparsity for geom step 8
    nrows_g=26 nrows=26 sparsity=44.4024 nnzs=30016, refcount: 8>
  <dData2D:(temp array for extrapolation) n=30016 m=1, refcount: 1>
refcount: 1>
Note: For starting DM, Qtot, Tr[D*S] =          8.00000000          8.13283518
No. of atoms with KB's overlaping orbs in proc 0. Max # of overlaps:      62     349
New grid distribution:   1
           1       1:    9    1:    9    1:   45

InitMesh: MESH =    18 x    18 x    90 =       29160
InitMesh: (bp) =     9 x     9 x    45 =        3645
InitMesh: Mesh cutoff (required, used) =   250.000   255.573 Ry
ExtMesh (bp) on 0 =    85 x    85 x   121 =      874225
PhiOnMesh: Number of (b)points on node 0 =                 3645
PhiOnMesh: nlist on node 0 =               351081

        iscf     Eharris(eV)        E_KS(eV)     FreeEng(eV)     dDmax    Ef(eV) dHmax(eV)
   scf:    1     -350.316848     -351.862584     -351.862584  0.477170 -5.581671  3.940240
   scf:    2     -352.153163     -352.093386     -352.093386  0.048613 -4.957486  1.329104
   scf:    3     -352.120416     -352.108434     -352.108435  0.044348 -4.614493  0.678823
   scf:    4     -352.113505     -352.112136     -352.112138  0.038464 -4.305624  0.071977
   scf:    5     -352.112430     -352.112328     -352.112330  0.002172 -4.324328  0.030552
   scf:    6     -352.112375     -352.112352     -352.112354  0.000798 -4.319435  0.020092
   scf:    7     -352.112401     -352.112378     -352.112380  0.001233 -4.314349  0.008273
   scf:    8     -352.112386     -352.112383     -352.112385  0.000619 -4.312321  0.001737
   scf:    9     -352.112383     -352.112383     -352.112385  0.000067 -4.312274  0.000790

SCF Convergence by DM+H criterion
max |DM_out - DM_in|         :     0.0000671843
max |H_out - H_in|      (eV) :     0.0007897736
SCF cycle converged after 9 iterations

Using DM_out to compute the final energy and forces
No. of atoms with KB's overlaping orbs in proc 0. Max # of overlaps:      62     349

siesta: E_KS(eV) =             -352.1124

siesta: Atomic forces (eV/Ang):
----------------------------------------
   Tot    0.028209   -0.016286    0.011220
----------------------------------------
   Max    5.746720
   Res    3.970547    sqrt( Sum f_i^2 / 3N )
----------------------------------------
   Max    5.746720    constrained

Stress-tensor-Voigt (kbar):     -928.64    -1093.27       32.45     -142.58      -57.42       99.46
(Free)E + p*V (eV/cell)     -336.9209
Target enthalpy (eV/cell)     -352.1124

siesta: Stress tensor (static) (eV/Ang**3):
        -0.579602   -0.088990    0.062078
        -0.088990   -0.682359   -0.035841
         0.062074   -0.035839    0.020251

siesta: Pressure (static):        663.15363045  kBar

siesta: Stress tensor (total) (eV/Ang**3):
        -0.579602   -0.088990    0.062078
        -0.088990   -0.682359   -0.035841
         0.062074   -0.035839    0.020251

siesta: Pressure (total):        663.15363045  kBar

mulliken: Atomic and Orbital Populations:

Species: B                   
Atom  Qatom  Qorb
               2s      2s      2py     2pz     2px     2py     2pz     2px     
               2Pdxy   2Pdyz   2Pdz2   2Pdxz   2Pdx2-y2
   1  3.634   0.766   0.220   0.521   0.295   0.475   0.272   0.308   0.282
              0.116   0.129   0.026   0.117   0.108

Species: N                   
Atom  Qatom  Qorb
               2s      2s      2py     2pz     2px     2py     2pz     2px     
               2Pdxy   2Pdyz   2Pdz2   2Pdxz   2Pdx2-y2
   2  4.366   0.033   0.928   0.333   0.520   0.391   0.789   0.517   0.733
              0.032   0.019   0.019   0.019   0.033

mulliken: Qtot =        8.000

                     ====================================
                        Begin CG opt. move =      9
                     ====================================

outcoor: Atomic coordinates (fractional):                   
    0.67845737    0.32154263    0.02621833   1       1  B
    0.32221881    0.67778118    0.97454785   2       2  N
k-point displ. along   1 input, could be:     0.00    0.50
k-point displ. along   2 input, could be:     0.00    0.50
 Kpoints in:           60 . Kpoints trimmed:           56

siesta: k-grid: Number of k-points =    56
siesta: k-grid: Cutoff (effective) =     4.697 Ang
siesta: k-grid: Supercell and displacements
siesta: k-grid:   10   0   0      0.000
siesta: k-grid:    0  10   0      0.000
siesta: k-grid:    0   0   1      0.000

superc: Internal auxiliary supercell:     9 x     9 x     3  =     243
superc: Number of atoms, orbitals, and projectors:    486   6318   7776

outcell: Unit cell vectors (Ang):
        2.143819   -0.001236    0.003240
       -1.072980    1.855984   -0.003240
        0.013502   -0.007795    9.394818

outcell: Cell vector modules (Ang)   :    2.143822    2.143822    9.394831
outcell: Cell angles (23,13,12) (deg):     90.1690     89.8310    120.0661
outcell: Cell volume (Ang**3)        :     37.3684
<dSpData1D:S at geom step 9
  <sparsity:sparsity for geom step 9
    nrows_g=26 nrows=26 sparsity=44.1420 nnzs=29840, refcount: 7>
  <dData1D:(new from dSpData1D) n=29840, refcount: 1>
refcount: 1>
New_DM. Step:    10
Re-using DM from previous geometries...
N DMs in history: 1
 DM extrapolation coefficients: 
1   1.00000
New DM after history re-use:
<dSpData2D:SpM extrapolated using coords
  <sparsity:sparsity for geom step 9
    nrows_g=26 nrows=26 sparsity=44.1420 nnzs=29840, refcount: 8>
  <dData2D:(temp array for extrapolation) n=29840 m=1, refcount: 1>
refcount: 1>
Note: For starting DM, Qtot, Tr[D*S] =          8.00000000          7.90842242
No. of atoms with KB's overlaping orbs in proc 0. Max # of overlaps:      62     349
New grid distribution:   1
           1       1:    9    1:    9    1:   45

InitMesh: MESH =    18 x    18 x    90 =       29160
InitMesh: (bp) =     9 x     9 x    45 =        3645
InitMesh: Mesh cutoff (required, used) =   250.000   253.638 Ry
ExtMesh (bp) on 0 =    85 x    85 x   121 =      874225
PhiOnMesh: Number of (b)points on node 0 =                 3645
PhiOnMesh: nlist on node 0 =               345021

        iscf     Eharris(eV)        E_KS(eV)     FreeEng(eV)     dDmax    Ef(eV) dHmax(eV)
   scf:    1     -352.384811     -352.116535     -352.116555  0.198056 -4.433336  2.383041
   scf:    2     -352.145987     -352.198212     -352.198215  0.042572 -4.694960  0.435926
   scf:    3     -352.210327     -352.212693     -352.212698  0.020532 -4.744362  0.390596
   scf:    4     -352.214702     -352.214031     -352.214035  0.004986 -4.791275  0.162674
   scf:    5     -352.214395     -352.214268     -352.214272  0.005368 -4.836699  0.081985
   scf:    6     -352.214298     -352.214336     -352.214339  0.002917 -4.861759  0.015345
   scf:    7     -352.214349     -352.214350     -352.214353  0.000392 -4.859923  0.010766
   scf:    8     -352.214353     -352.214352     -352.214355  0.000249 -4.861793  0.006369
   scf:    9     -352.214354     -352.214353     -352.214356  0.000462 -4.864854  0.002160
   scf:   10     -352.214353     -352.214353     -352.214356  0.000244 -4.866401  0.000224
   scf:   11     -352.214353     -352.214353     -352.214356  0.000008 -4.866389  0.000196

SCF Convergence by DM+H criterion
max |DM_out - DM_in|         :     0.0000076299
max |H_out - H_in|      (eV) :     0.0001957879
SCF cycle converged after 11 iterations

Using DM_out to compute the final energy and forces
No. of atoms with KB's overlaping orbs in proc 0. Max # of overlaps:      62     349

siesta: E_KS(eV) =             -352.2144

siesta: Atomic forces (eV/Ang):
----------------------------------------
   Tot    0.046133   -0.026635    0.005509
----------------------------------------
   Max    3.924078
   Res    3.240648    sqrt( Sum f_i^2 / 3N )
----------------------------------------
   Max    3.924078    constrained

Stress-tensor-Voigt (kbar):     -777.66     -892.42       71.97      -99.38      -46.19       80.00
(Free)E + p*V (eV/cell)     -339.7899
Target enthalpy (eV/cell)     -352.2144

siesta: Stress tensor (static) (eV/Ang**3):
        -0.485375   -0.062028    0.049932
        -0.062028   -0.556998   -0.028828
         0.049933   -0.028829    0.044917

siesta: Pressure (static):        532.70602290  kBar

siesta: Stress tensor (total) (eV/Ang**3):
        -0.485375   -0.062028    0.049932
        -0.062028   -0.556998   -0.028828
         0.049933   -0.028829    0.044917

siesta: Pressure (total):        532.70602290  kBar

mulliken: Atomic and Orbital Populations:

Species: B                   
Atom  Qatom  Qorb
               2s      2s      2py     2pz     2px     2py     2pz     2px     
               2Pdxy   2Pdyz   2Pdz2   2Pdxz   2Pdx2-y2
   1  3.589   0.721   0.246   0.472   0.341   0.434   0.307   0.261   0.311
              0.112   0.126   0.037   0.116   0.105

Species: N                   
Atom  Qatom  Qorb
               2s      2s      2py     2pz     2px     2py     2pz     2px     
               2Pdxy   2Pdyz   2Pdz2   2Pdxz   2Pdx2-y2
   2  4.411   0.168   0.861   0.423   0.517   0.463   0.703   0.495   0.651
              0.033   0.020   0.023   0.020   0.034

mulliken: Qtot =        8.000

cgvc: Finished line minimization    1.  Mean atomic displacement =    0.2247

                     ====================================
                        Begin CG opt. move =     10
                     ====================================

outcoor: Atomic coordinates (fractional):                   
    0.67137497    0.32862503    0.01572838   1       1  B
    0.32947725    0.67052274    0.98513139   2       2  N
k-point displ. along   1 input, could be:     0.00    0.50
k-point displ. along   2 input, could be:     0.00    0.50
 Kpoints in:           60 . Kpoints trimmed:           56

siesta: k-grid: Number of k-points =    56
siesta: k-grid: Cutoff (effective) =     4.660 Ang
siesta: k-grid: Supercell and displacements
siesta: k-grid:   10   0   0      0.000
siesta: k-grid:    0  10   0      0.000
siesta: k-grid:    0   0   1      0.000

superc: Internal auxiliary supercell:     9 x     9 x     3  =     243
superc: Number of atoms, orbitals, and projectors:    486   6318   7776

outcell: Unit cell vectors (Ang):
        2.123248   -0.000138    0.002622
       -1.061743    1.838718   -0.002622
        0.010926   -0.006308    9.319470

outcell: Cell vector modules (Ang)   :    2.123249    2.123249    9.319479
outcell: Cell angles (23,13,12) (deg):     90.1379     89.8621    120.0075
outcell: Cell volume (Ang**3)        :     36.3823
<dSpData1D:S at geom step 10
  <sparsity:sparsity for geom step 10
    nrows_g=26 nrows=26 sparsity=44.1420 nnzs=29840, refcount: 7>
  <dData1D:(new from dSpData1D) n=29840, refcount: 1>
refcount: 1>
New_DM. Step:    11
Re-using DM from previous geometries...
N DMs in history: 1
 DM extrapolation coefficients: 
1   1.00000
New DM after history re-use:
<dSpData2D:SpM extrapolated using coords
  <sparsity:sparsity for geom step 10
    nrows_g=26 nrows=26 sparsity=44.1420 nnzs=29840, refcount: 8>
  <dData2D:(temp array for extrapolation) n=29840 m=1, refcount: 1>
refcount: 1>
Note: For starting DM, Qtot, Tr[D*S] =          8.00000000          8.09815162
No. of atoms with KB's overlaping orbs in proc 0. Max # of overlaps:      62     349
New grid distribution:   1
           1       1:    9    1:    9    1:   45

InitMesh: MESH =    18 x    18 x    90 =       29160
InitMesh: (bp) =     9 x     9 x    45 =        3645
InitMesh: Mesh cutoff (required, used) =   250.000   257.755 Ry
ExtMesh (bp) on 0 =    85 x    85 x   121 =      874225
PhiOnMesh: Number of (b)points on node 0 =                 3645
PhiOnMesh: nlist on node 0 =               354096

        iscf     Eharris(eV)        E_KS(eV)     FreeEng(eV)     dDmax    Ef(eV) dHmax(eV)
[...]
                        Begin CG opt. move =     39
                     ====================================

outcoor: Atomic coordinates (fractional):                   
    0.66707574    0.33292439    0.00021750   1       1  B
    0.33267733    0.66732260    1.00008640   2       2  N
k-point displ. along   1 input, could be:     0.00    0.50
k-point displ. along   2 input, could be:     0.00    0.50
 Kpoints in:           60 . Kpoints trimmed:           56

siesta: k-grid: Number of k-points =    56
siesta: k-grid: Cutoff (effective) =     4.654 Ang
siesta: k-grid: Supercell and displacements
siesta: k-grid:   10   0   0      0.000
siesta: k-grid:    0  10   0      0.000
siesta: k-grid:    0   0   1      0.000

superc: Internal auxiliary supercell:     9 x     9 x     3  =     243
superc: Number of atoms, orbitals, and projectors:    486   6318   7776

outcell: Unit cell vectors (Ang):
        2.495705   -0.000053    0.003036
       -1.247899    2.161317   -0.003036
        0.012650   -0.007304    9.307091

outcell: Cell vector modules (Ang)   :    2.495707    2.495707    9.307102
outcell: Cell angles (23,13,12) (deg):     90.1476     89.8524    120.0025
outcell: Cell volume (Ang**3)        :     50.2018
<dSpData1D:S at geom step 39
  <sparsity:sparsity for geom step 39
    nrows_g=26 nrows=26 sparsity=36.7899 nnzs=24870, refcount: 7>
  <dData1D:(new from dSpData1D) n=24870, refcount: 1>
refcount: 1>
New_DM. Step:    40
Re-using DM from previous geometries...
N DMs in history: 1
 DM extrapolation coefficients: 
1   1.00000
New DM after history re-use:
<dSpData2D:SpM extrapolated using coords
  <sparsity:sparsity for geom step 39
    nrows_g=26 nrows=26 sparsity=36.7899 nnzs=24870, refcount: 8>
  <dData2D:(temp array for extrapolation) n=24870 m=1, refcount: 1>
refcount: 1>
No. of atoms with KB's overlaping orbs in proc 0. Max # of overlaps:      50     317
New grid distribution:   1
           1       1:   12    1:   12    1:   45

InitMesh: MESH =    24 x    24 x    90 =       51840
InitMesh: (bp) =    12 x    12 x    45 =        6480
InitMesh: Mesh cutoff (required, used) =   250.000   258.441 Ry
ExtMesh (bp) on 0 =   100 x   100 x   121 =     1210000
PhiOnMesh: Number of (b)points on node 0 =                 6480
PhiOnMesh: nlist on node 0 =               453231

        iscf     Eharris(eV)        E_KS(eV)     FreeEng(eV)     dDmax    Ef(eV) dHmax(eV)
   scf:    1     -356.782866     -356.774363     -356.774363  0.004774 -4.992905  0.011670
   scf:    2     -356.774371     -356.774368     -356.774368  0.000138 -4.994870  0.005905
   scf:    3     -356.774370     -356.774369     -356.774369  0.000183 -4.996910  0.001215
   scf:    4     -356.774369     -356.774369     -356.774369  0.000048 -4.997231  0.000553

SCF Convergence by DM+H criterion
max |DM_out - DM_in|         :     0.0000481525
max |H_out - H_in|      (eV) :     0.0005525045
SCF cycle converged after 4 iterations

Using DM_out to compute the final energy and forces
No. of atoms with KB's overlaping orbs in proc 0. Max # of overlaps:      50     317

siesta: E_KS(eV) =             -356.7744

siesta: Atomic forces (eV/Ang):
----------------------------------------
   Tot   -0.022415    0.012938   -0.009505
----------------------------------------
   Max    0.199786
   Res    0.126614    sqrt( Sum f_i^2 / 3N )
----------------------------------------
   Max    0.199786    constrained

Stress-tensor-Voigt (kbar):        2.63        0.34       -2.14       -1.98       -0.02        0.03
(Free)E + p*V (eV/cell)     -356.7831
Target enthalpy (eV/cell)     -356.7744

siesta: Stress tensor (static) (eV/Ang**3):
         0.001642   -0.001237    0.000017
        -0.001237    0.000214   -0.000010
         0.000017   -0.000010   -0.001333

siesta: Pressure (static):         -0.27876968  kBar

siesta: Stress tensor (total) (eV/Ang**3):
         0.001642   -0.001237    0.000017
        -0.001237    0.000214   -0.000010
         0.000017   -0.000010   -0.001333

siesta: Pressure (total):         -0.27876968  kBar

mulliken: Atomic and Orbital Populations:

Species: B                   
Atom  Qatom  Qorb
               2s      2s      2py     2pz     2px     2py     2pz     2px     
               2Pdxy   2Pdyz   2Pdz2   2Pdxz   2Pdx2-y2
   1  3.479   0.666   0.263   0.525   0.208   0.522   0.264   0.290   0.265
              0.139   0.094   0.012   0.093   0.138

Species: N                   
Atom  Qatom  Qorb
               2s      2s      2py     2pz     2px     2py     2pz     2px     
               2Pdxy   2Pdyz   2Pdz2   2Pdxz   2Pdx2-y2
   2  4.521   0.175   0.858   0.307   1.018   0.311   0.762   0.283   0.759
              0.015   0.007   0.005   0.007   0.015

mulliken: Qtot =        8.000

                     ====================================
                        Begin CG opt. move =     40
                     ====================================

outcoor: Atomic coordinates (fractional):                   
    0.66634248    0.33365751    0.00024390   1       1  B
    0.33287313    0.66712689    1.00024531   2       2  N
k-point displ. along   1 input, could be:     0.00    0.50
k-point displ. along   2 input, could be:     0.00    0.50
 Kpoints in:           60 . Kpoints trimmed:           56

siesta: k-grid: Number of k-points =    56
siesta: k-grid: Cutoff (effective) =     4.651 Ang
siesta: k-grid: Supercell and displacements
siesta: k-grid:   10   0   0      0.000
siesta: k-grid:    0  10   0      0.000
siesta: k-grid:    0   0   1      0.000

superc: Internal auxiliary supercell:     9 x     9 x     3  =     243
superc: Number of atoms, orbitals, and projectors:    486   6318   7776

outcell: Unit cell vectors (Ang):
        2.494567    0.000262    0.003041
       -1.247056    2.160489   -0.003041
        0.012669   -0.007315    9.302298

outcell: Cell vector modules (Ang)   :    2.494568    2.494568    9.302309
outcell: Cell angles (23,13,12) (deg):     90.1479     89.8521    119.9880
outcell: Cell volume (Ang**3)        :     50.1375
<dSpData1D:S at geom step 40
  <sparsity:sparsity for geom step 40
    nrows_g=26 nrows=26 sparsity=37.0325 nnzs=25034, refcount: 7>
  <dData1D:(new from dSpData1D) n=25034, refcount: 1>
refcount: 1>
New_DM. Step:    41
Re-using DM from previous geometries...
N DMs in history: 1
 DM extrapolation coefficients: 
1   1.00000
New DM after history re-use:
<dSpData2D:SpM extrapolated using coords
  <sparsity:sparsity for geom step 40
    nrows_g=26 nrows=26 sparsity=37.0325 nnzs=25034, refcount: 8>
  <dData2D:(temp array for extrapolation) n=25034 m=1, refcount: 1>
refcount: 1>
No. of atoms with KB's overlaping orbs in proc 0. Max # of overlaps:      50     319
New grid distribution:   1
           1       1:   12    1:   12    1:   45

InitMesh: MESH =    24 x    24 x    90 =       51840
InitMesh: (bp) =    12 x    12 x    45 =        6480
InitMesh: Mesh cutoff (required, used) =   250.000   258.707 Ry
ExtMesh (bp) on 0 =   100 x   100 x   121 =     1210000
PhiOnMesh: Number of (b)points on node 0 =                 6480
PhiOnMesh: nlist on node 0 =               453770

        iscf     Eharris(eV)        E_KS(eV)     FreeEng(eV)     dDmax    Ef(eV) dHmax(eV)
   scf:    1     -356.767558     -356.774831     -356.774831  0.012655 -4.983451  0.010048
   scf:    2     -356.774836     -356.774834     -356.774834  0.000127 -4.981721  0.005189
   scf:    3     -356.774835     -356.774835     -356.774835  0.000171 -4.979846  0.001067
   scf:    4     -356.774835     -356.774835     -356.774835  0.000043 -4.979550  0.000468

SCF Convergence by DM+H criterion
max |DM_out - DM_in|         :     0.0000430991
max |H_out - H_in|      (eV) :     0.0004680554
SCF cycle converged after 4 iterations

Using DM_out to compute the final energy and forces
No. of atoms with KB's overlaping orbs in proc 0. Max # of overlaps:      50     319

siesta: E_KS(eV) =             -356.7748

siesta: Atomic forces (eV/Ang):
----------------------------------------
   Tot    0.016166   -0.009333   -0.010183
----------------------------------------
   Max    0.020082
   Res    0.010402    sqrt( Sum f_i^2 / 3N )
----------------------------------------
   Max    0.020082    constrained

Stress-tensor-Voigt (kbar):        0.09        0.15       -2.14        0.05       -0.01        0.01
(Free)E + p*V (eV/cell)     -356.7551
Target enthalpy (eV/cell)     -356.7748

siesta: Stress tensor (static) (eV/Ang**3):
         0.000057    0.000033    0.000007
         0.000033    0.000094   -0.000004
         0.000007   -0.000004   -0.001334

siesta: Pressure (static):          0.63194007  kBar

siesta: Stress tensor (total) (eV/Ang**3):
         0.000057    0.000033    0.000007
         0.000033    0.000094   -0.000004
         0.000007   -0.000004   -0.001334

siesta: Pressure (total):          0.63194007  kBar

mulliken: Atomic and Orbital Populations:

Species: B                   
Atom  Qatom  Qorb
               2s      2s      2py     2pz     2px     2py     2pz     2px     
               2Pdxy   2Pdyz   2Pdz2   2Pdxz   2Pdx2-y2
   1  3.479   0.665   0.264   0.524   0.208   0.523   0.265   0.291   0.265
              0.139   0.093   0.012   0.093   0.138

Species: N                   
Atom  Qatom  Qorb
               2s      2s      2py     2pz     2px     2py     2pz     2px     
               2Pdxy   2Pdyz   2Pdz2   2Pdxz   2Pdx2-y2
   2  4.521   0.174   0.858   0.308   1.017   0.309   0.761   0.284   0.761
              0.015   0.007   0.005   0.007   0.015

mulliken: Qtot =        8.000

cgvc: Finished line minimization   12.  Mean atomic displacement =    0.0009

                     ====================================
                        Begin CG opt. move =     41
                     ====================================

outcoor: Atomic coordinates (fractional):                   
    0.66640169    0.33359832    0.00023098   1       1  B
    0.33295115    0.66704885    1.00022762   2       2  N
k-point displ. along   1 input, could be:     0.00    0.50
k-point displ. along   2 input, could be:     0.00    0.50
 Kpoints in:           60 . Kpoints trimmed:           56

siesta: k-grid: Number of k-points =    56
siesta: k-grid: Cutoff (effective) =     4.652 Ang
siesta: k-grid: Supercell and displacements
siesta: k-grid:   10   0   0      0.000
siesta: k-grid:    0  10   0      0.000
siesta: k-grid:    0   0   1      0.000

superc: Internal auxiliary supercell:     9 x     9 x     3  =     243
superc: Number of atoms, orbitals, and projectors:    486   6318   7776

outcell: Unit cell vectors (Ang):
        2.494685    0.000227    0.003040
       -1.247146    2.160574   -0.003040
        0.012666   -0.007313    9.303116

outcell: Cell vector modules (Ang)   :    2.494687    2.494687    9.303127
outcell: Cell angles (23,13,12) (deg):     90.1478     89.8522    119.9896
outcell: Cell volume (Ang**3)        :     50.1459
<dSpData1D:S at geom step 41
  <sparsity:sparsity for geom step 41
    nrows_g=26 nrows=26 sparsity=37.0325 nnzs=25034, refcount: 7>
  <dData1D:(new from dSpData1D) n=25034, refcount: 1>
refcount: 1>
New_DM. Step:    42
Re-using DM from previous geometries...
N DMs in history: 1
 DM extrapolation coefficients: 
1   1.00000
New DM after history re-use:
<dSpData2D:SpM extrapolated using coords
  <sparsity:sparsity for geom step 41
    nrows_g=26 nrows=26 sparsity=37.0325 nnzs=25034, refcount: 8>
  <dData2D:(temp array for extrapolation) n=25034 m=1, refcount: 1>
refcount: 1>
No. of atoms with KB's overlaping orbs in proc 0. Max # of overlaps:      50     319
New grid distribution:   1
           1       1:   12    1:   12    1:   45

InitMesh: MESH =    24 x    24 x    90 =       51840
InitMesh: (bp) =    12 x    12 x    45 =        6480
InitMesh: Mesh cutoff (required, used) =   250.000   258.662 Ry
ExtMesh (bp) on 0 =   100 x   100 x   121 =     1210000
PhiOnMesh: Number of (b)points on node 0 =                 6480
PhiOnMesh: nlist on node 0 =               453689

        iscf     Eharris(eV)        E_KS(eV)     FreeEng(eV)     dDmax    Ef(eV) dHmax(eV)
   scf:    1     -356.775617     -356.774847     -356.774847  0.000194 -4.982103  0.000847
   scf:    2     -356.774847     -356.774847     -356.774847  0.000016 -4.982271  0.000539

SCF Convergence by DM+H criterion
max |DM_out - DM_in|         :     0.0000161202
max |H_out - H_in|      (eV) :     0.0005386968
SCF cycle converged after 2 iterations

Using DM_out to compute the final energy and forces
No. of atoms with KB's overlaping orbs in proc 0. Max # of overlaps:      50     319

siesta: E_KS(eV) =             -356.7748

siesta: Atomic forces (eV/Ang):
----------------------------------------
   Tot    0.012983   -0.007496   -0.009743
----------------------------------------
   Max    0.016987
   Res    0.009160    sqrt( Sum f_i^2 / 3N )
----------------------------------------
   Max    0.016987    constrained

Stress-tensor-Voigt (kbar):        0.25        0.29       -2.14        0.03       -0.01        0.01
(Free)E + p*V (eV/cell)     -356.7582
Target enthalpy (eV/cell)     -356.7748

siesta: Stress tensor (static) (eV/Ang**3):
         0.000158    0.000022    0.000006
         0.000022    0.000183   -0.000003
         0.000006   -0.000003   -0.001336

siesta: Pressure (static):          0.53136230  kBar

siesta: Stress tensor (total) (eV/Ang**3):
         0.000158    0.000022    0.000006
         0.000022    0.000183   -0.000003
         0.000006   -0.000003   -0.001336

siesta: Pressure (total):          0.53136230  kBar

mulliken: Atomic and Orbital Populations:

Species: B                   
Atom  Qatom  Qorb
               2s      2s      2py     2pz     2px     2py     2pz     2px     
               2Pdxy   2Pdyz   2Pdz2   2Pdxz   2Pdx2-y2
   1  3.479   0.665   0.264   0.524   0.208   0.523   0.265   0.291   0.265
              0.139   0.093   0.012   0.093   0.138

Species: N                   
Atom  Qatom  Qorb
               2s      2s      2py     2pz     2px     2py     2pz     2px     
               2Pdxy   2Pdyz   2Pdz2   2Pdxz   2Pdx2-y2
   2  4.521   0.174   0.858   0.308   1.017   0.309   0.761   0.284   0.761
              0.015   0.007   0.005   0.007   0.015

mulliken: Qtot =        8.000

outcoor: Relaxed atomic coordinates (fractional):           
    0.66640169    0.33359832    0.00023098   1       1  B
    0.33295115    0.66704885    1.00022762   2       2  N

outcell: Unit cell vectors (Ang):
        2.494685    0.000227    0.003040
       -1.247146    2.160574   -0.003040
        0.012666   -0.007313    9.303116

outcell: Cell vector modules (Ang)   :    2.494687    2.494687    9.303127
outcell: Cell angles (23,13,12) (deg):     90.1478     89.8522    119.9896
outcell: Cell volume (Ang**3)        :     50.1459

siesta: Program's energy decomposition (eV):
siesta: Ebs     =      -112.867251
siesta: Eions   =       626.761802
siesta: Ena     =       158.406948
siesta: Ekin    =       255.258676
siesta: Enl     =       -26.022818
siesta: Eso     =         0.000000
siesta: Eldau   =         0.000000
siesta: DEna    =       -12.589478
siesta: DUscf   =         1.149754
siesta: DUext   =         0.000000
siesta: Exc     =      -106.216127
siesta: eta*DQ  =         0.000000
siesta: Emadel  =         0.000000
siesta: Emeta   =         0.000000
siesta: Emolmec =         0.000000
siesta: Ekinion =         0.000000
siesta: Eharris =      -356.774847
siesta: Etot    =      -356.774847
siesta: FreeEng =      -356.774847

siesta: Final energy (eV):
siesta:  Band Struct. =    -112.867251
siesta:       Kinetic =     255.258676
siesta:       Hartree =     590.877502
siesta:       Eldau   =       0.000000
siesta:       Eso     =       0.000000
siesta:    Ext. field =       0.000000
siesta:   Exch.-corr. =    -106.216127
siesta:  Ion-electron =   -1419.108466
siesta:       Ion-ion =     322.413569
siesta:       Ekinion =       0.000000
siesta:         Total =    -356.774847
siesta:         Fermi =      -4.982271

siesta: Stress tensor (static) (eV/Ang**3):
siesta:     0.000158    0.000022    0.000006
siesta:     0.000022    0.000183   -0.000003
siesta:     0.000006   -0.000003   -0.001336

siesta: Constrained stress tensor (static) (eV/Ang**3):
siesta:     0.000158    0.000022    0.000006
siesta:     0.000022    0.000183   -0.000003
siesta:     0.000006   -0.000003   -0.001336

siesta: Cell volume =         50.145883 Ang**3

siesta: Pressure (static):
siesta:                Solid            Molecule  Units
siesta:           0.00000361          0.00000150  Ry/Bohr**3
siesta:           0.00033165          0.00013796  eV/Ang**3
siesta:           0.53136230          0.22104184  kBar
(Free)E+ p_basis*V_orbitals  =        -355.486769
(Free)Eharris+ p_basis*V_orbitals  =        -355.486769

timer: Elapsed wall time (sec) =     366.871
timer: CPU execution times (sec):

Routine            Calls   Time/call    Tot.time        %
siesta                 1     366.445     366.445   100.00
Setup                  1       0.175       0.175     0.05
bands                  1       0.000       0.000     0.00
KSV_init               1       0.000       0.000     0.00
IterGeom              42       8.721     366.266    99.95
state_init            42       0.048       1.997     0.54
hsparse               42       0.011       0.461     0.13
overlap               42       0.020       0.849     0.23
Setup_H0              42       1.186      49.793    13.59
naefs                 84       0.000       0.014     0.00
MolMec                84       0.000       0.000     0.00
kinefsm               84       0.015       1.296     0.35
nlefsm                84       0.321      26.981     7.36
DHSCF_Init            42       0.877      36.823    10.05
DHSCF1                42       0.067       2.824     0.77
INITMESH              42       0.000       0.000     0.00
DHSCF2                42       0.809      33.997     9.28
REMESH                42       0.179       7.526     2.05
REORD               1460       0.000       0.097     0.03
PHION                 42       0.569      23.909     6.52
COMM_BSC             956       0.000       0.066     0.02
POISON               457       0.002       0.988     0.27
fft                  914       0.001       0.633     0.17
IterSCF              331       0.728     241.104    65.80
setup_H              373       0.519     193.698    52.86
DHSCF                415       0.605     251.108    68.53
DHSCF3               415       0.520     215.624    58.84
rhoofd               415       0.319     132.525    36.17
CellXC               415       0.006       2.420     0.66
cellXC               415       0.006       2.418     0.66
vmat                 415       0.192      79.505    21.70
compute_dm           331       0.141      46.704    12.75
diagon               331       0.139      45.929    12.53
c-eigval           18536       0.001      13.927     3.80
c-buildHS          18536       0.001      12.255     3.34
cdiag              37072       0.000       5.821     1.59
cdiag1             37072       0.000       0.419     0.11
cdiag2             37072       0.000       0.810     0.22
cdiag3             37072       0.000       4.340     1.18
cdiag4             37072       0.000       0.107     0.03
c-eigvec           18536       0.001      17.041     4.65
c-buildD           18536       0.001      14.730     4.02
MIXER                289       0.000       0.081     0.02
WriteM               331       0.001       0.482     0.13
PostSCF               42       1.744      73.252    19.99
DHSCF4                42       0.845      35.483     9.68
dfscf                 42       0.784      32.916     8.98
overfsm               42       0.011       0.457     0.12
state_analysis        42       0.000       0.018     0.00
siesta_move           42       0.000       0.008     0.00
Analysis               1       0.002       0.002     0.00
optical                1       0.000       0.000     0.00
  
>> End of run:  20-MAY-2017  11:32:30
