# --- AXSF block for ---- iev =    16  freq =     444.780836 cm-1
ANIMSTEPS   30
ATOMS    1
  32  -0.0016730  -0.0003182   0.0137037
  14  -4.0899979  -4.0886539  -4.0748669
  14  -4.0899976  -4.0886538   1.3715463
  14  -4.0899969   1.3577595  -4.0748669
  14  -4.0899966   1.3577596   1.3715464
  14   1.3564155  -4.0886529  -4.0748666
  14   1.3564158  -4.0886528   1.3715466
  14   1.3564165   1.3577605  -4.0748666
  14   1.3564168   1.3577606   1.3715467
  14   0.0089182  -2.7242696  -2.6770394
  14   0.0089185  -2.7242695   2.7693739
  14   0.0089192   2.7221438  -2.6770393
  14   0.0089195   2.7221439   2.7693739
  14  -4.0368153  -1.4115818  -1.3976747
  14  -4.0368150  -1.4115817   4.0487386
  14  -4.0368143   4.0348316  -1.3976746
  14  -4.0368140   4.0348316   4.0487387
  14   1.4095981  -1.4115808  -1.3976743
  14   1.4095984  -1.4115807   4.0487389
  14   1.4095991   4.0348326  -1.3976743
  14   1.4095994   4.0348326   4.0487390
  14  -2.7288239   0.0016975  -2.6770395
  14  -2.7288236   0.0016976   2.7693737
  14   2.7175895   0.0016985  -2.6770392
  14   2.7175898   0.0016986   2.7693741
  14  -1.4075387  -4.0408585  -1.3922967
  14  -1.4075383  -4.0408584   4.0541166
  14  -1.4075377   1.4055549  -1.3922966
  14  -1.4075373   1.4055550   4.0541167
  14   4.0388747  -4.0408575  -1.3922964
  14   4.0388750  -4.0408574   4.0541169
  14   4.0388757   1.4055559  -1.3922963
  14   4.0388760   1.4055560   4.0541170
  14  -2.7288661  -2.7242967  -0.0729758
  14  -2.7288651   2.7221167  -0.0729757
  14   2.7175473  -2.7242957  -0.0729755
  14   2.7175483   2.7221177  -0.0729754
  14  -1.3517982  -1.3504542  -4.0615900
  14  -1.3517979  -1.3504541   1.3848233
  14  -1.3517972   4.0959592  -4.0615899
  14  -1.3517969   4.0959593   1.3848234
  14   4.0946152  -1.3504532  -4.0615897
  14   4.0946155  -1.3504531   1.3848236
  14   4.0946162   4.0959602  -4.0615896
  14   4.0946165   4.0959603   1.3848237
ATOMS    2
  32  -0.0032722  -0.0006229   0.0268091
  14  -4.1138126  -4.1111837  -4.0842132
  14  -4.1138123  -4.1111837   1.3622001
  14  -4.1138116   1.3352296  -4.0842131
  14  -4.1138113   1.3352297   1.3622001
  14   1.3326007  -4.1111827  -4.0842129
  14   1.3326010  -4.1111827   1.3622004
  14   1.3326017   1.3352307  -4.0842128
  14   1.3326020   1.3352307   1.3622004
  14   0.0174473  -2.7252862  -2.6328904
  14   0.0174477  -2.7252861   2.8135229
  14   0.0174483   2.7211272  -2.6328903
  14   0.0174487   2.7211273   2.8135230
  14  -4.0097695  -1.4405238  -1.4133183
  14  -4.0097692  -1.4405237   4.0330950
  14  -4.0097685   4.0058896  -1.4133182
  14  -4.0097682   4.0058897   4.0330951
  14   1.4366439  -1.4405228  -1.4133180
  14   1.4366442  -1.4405227   4.0330953
  14   1.4366449   4.0058906  -1.4133179
  14   1.4366452   4.0058907   4.0330954
  14  -2.7341956   0.0033218  -2.6328905
  14  -2.7341953   0.0033219   2.8135228
  14   2.7122177   0.0033228  -2.6328902
  14   2.7122181   0.0033229   2.8135231
  14  -1.4326134  -4.0176799  -1.4027969
  14  -1.4326131  -4.0176799   4.0436164
  14  -1.4326124   1.4287335  -1.4027968
  14  -1.4326121   1.4287335   4.0436165
  14   4.0138000  -4.0176789  -1.4027966
  14   4.0138003  -4.0176789   4.0436167
  14   4.0138010   1.4287345  -1.4027965
  14   4.0138013   1.4287345   4.0436168
  14  -2.7342778  -2.7253387  -0.1427609
  14  -2.7342768   2.7210747  -0.1427608
  14   2.7121356  -2.7253377  -0.1427606
  14   2.7121366   2.7210757  -0.1427605
  14  -1.3235673  -1.3209383  -4.0784811
  14  -1.3235670  -1.3209383   1.3679321
  14  -1.3235663   4.1254750  -4.0784811
  14  -1.3235660   4.1254751   1.3679322
  14   4.1228461  -1.3209373  -4.0784808
  14   4.1228464  -1.3209373   1.3679324
  14   4.1228471   4.1254760  -4.0784808
  14   4.1228474   4.1254761   1.3679325
ATOMS    3
  32  -0.0047284  -0.0009004   0.0387427
  14  -4.1354982  -4.1316993  -4.0927239
  14  -4.1354979  -4.1316992   1.3536894
  14  -4.1354972   1.3147141  -4.0927238
  14  -4.1354969   1.3147142   1.3536895
  14   1.3109152  -4.1316983  -4.0927235
  14   1.3109155  -4.1316982   1.3536897
  14   1.3109162   1.3147151  -4.0927235
  14   1.3109165   1.3147152   1.3536898
  14   0.0252139  -2.7262119  -2.5926886
  14   0.0252142  -2.7262118   2.8537247
  14   0.0252149   2.7202015  -2.5926885
  14   0.0252152   2.7202016   2.8537247
  14  -3.9851418  -1.4668782  -1.4275633
  14  -3.9851415  -1.4668781   4.0188500
  14  -3.9851408   3.9795352  -1.4275632
  14  -3.9851405   3.9795353   4.0188501
  14   1.4612716  -1.4668772  -1.4275630
  14   1.4612719  -1.4668771   4.0188503
  14   1.4612726   3.9795362  -1.4275629
  14   1.4612729   3.9795363   4.0188504
  14  -2.7390871   0.0048008  -2.5926887
  14  -2.7390868   0.0048009   2.8537245
  14   2.7073263   0.0048018  -2.5926884
  14   2.7073266   0.0048019   2.8537248
  14  -1.4554463  -3.9965737  -1.4123583
  14  -1.4554460  -3.9965736   4.0340550
  14  -1.4554453   1.4498397  -1.4123582
  14  -1.4554450   1.4498398   4.0340551
  14   3.9909671  -3.9965727  -1.4123580
  14   3.9909674  -3.9965726   4.0340553
  14   3.9909681   1.4498407  -1.4123579
  14   3.9909684   1.4498408   4.0340554
  14  -2.7392056  -2.7262876  -0.2063068
  14  -2.7392046   2.7201258  -0.2063067
  14   2.7072078  -2.7262866  -0.2063065
  14   2.7072088   2.7201268  -0.2063064
  14  -1.2978604  -1.2940614  -4.0938621
  14  -1.2978601  -1.2940614   1.3525512
  14  -1.2978594   4.1523520  -4.0938620
  14  -1.2978591   4.1523520   1.3525513
  14   4.1485530  -1.2940604  -4.0938618
  14   4.1485533  -1.2940604   1.3525515
  14   4.1485540   4.1523530  -4.0938617
  14   4.1485543   4.1523530   1.3525516
ATOMS    4
  32  -0.0059779  -0.0011385   0.0489830
  14  -4.1541068  -4.1493038  -4.1000269
  14  -4.1541065  -4.1493037   1.3463863
  14  -4.1541058   1.2971096  -4.1000269
  14  -4.1541055   1.2971096   1.3463864
  14   1.2923066  -4.1493028  -4.1000266
  14   1.2923069  -4.1493027   1.3463866
  14   1.2923076   1.2971106  -4.1000265
  14   1.2923079   1.2971106   1.3463867
  14   0.0318785  -2.7270062  -2.5581911
  14   0.0318788  -2.7270062   2.8882222
  14   0.0318795   2.7194072  -2.5581910
  14   0.0318798   2.7194072   2.8882223
  14  -3.9640085  -1.4894931  -1.4397871
  14  -3.9640082  -1.4894930   4.0066262
  14  -3.9640075   3.9569203  -1.4397870
  14  -3.9640072   3.9569203   4.0066263
  14   1.4824048  -1.4894921  -1.4397867
  14   1.4824052  -1.4894920   4.0066265
  14   1.4824058   3.9569213  -1.4397867
  14   1.4824062   3.9569213   4.0066266
  14  -2.7432845   0.0060700  -2.5581912
  14  -2.7432842   0.0060700   2.8882221
  14   2.7031289   0.0060710  -2.5581909
  14   2.7031292   0.0060710   2.8882224
  14  -1.4750394  -3.9784623  -1.4205630
  14  -1.4750391  -3.9784622   4.0258502
  14  -1.4750384   1.4679511  -1.4205630
  14  -1.4750381   1.4679512   4.0258503
  14   3.9713740  -3.9784613  -1.4205627
  14   3.9713743  -3.9784612   4.0258505
  14   3.9713750   1.4679521  -1.4205626
  14   3.9713753   1.4679522   4.0258506
  14  -2.7434342  -2.7271018  -0.2608361
  14  -2.7434332   2.7193116  -0.2608360
  14   2.7029792  -2.7271008  -0.2608358
  14   2.7029802   2.7193126  -0.2608357
  14  -1.2758011  -1.2709981  -4.1070606
  14  -1.2758008  -1.2709980   1.3393526
  14  -1.2758001   4.1754153  -4.1070606
  14  -1.2757998   4.1754154   1.3393527
  14   4.1706123  -1.2709971  -4.1070603
  14   4.1706126  -1.2709970   1.3393529
  14   4.1706133   4.1754163  -4.1070603
  14   4.1706136   4.1754164   1.3393530
ATOMS    5
  32  -0.0069663  -0.0013268   0.0570826
  14  -4.1688251  -4.1632280  -4.1058032
  14  -4.1688248  -4.1632280   1.3406100
  14  -4.1688241   1.2831854  -4.1058032
  14  -4.1688238   1.2831854   1.3406101
  14   1.2775882  -4.1632270  -4.1058029
  14   1.2775886  -4.1632270   1.3406103
  14   1.2775892   1.2831864  -4.1058029
  14   1.2775896   1.2831864   1.3406104
  14   0.0371498  -2.7276345  -2.5309055
  14   0.0371501  -2.7276344   2.9155078
  14   0.0371508   2.7187789  -2.5309054
  14   0.0371511   2.7187789   2.9155079
  14  -3.9472933  -1.5073803  -1.4494554
  14  -3.9472930  -1.5073802   3.9969579
  14  -3.9472923   3.9390331  -1.4494553
  14  -3.9472920   3.9390332   3.9969580
  14   1.4991201  -1.5073793  -1.4494551
  14   1.4991204  -1.5073792   3.9969582
  14   1.4991211   3.9390341  -1.4494550
  14   1.4991214   3.9390342   3.9969583
  14  -2.7466044   0.0070738  -2.5309056
  14  -2.7466041   0.0070739   2.9155077
  14   2.6998090   0.0070748  -2.5309053
  14   2.6998093   0.0070749   2.9155080
  14  -1.4905364  -3.9641371  -1.4270525
  14  -1.4905361  -3.9641371   4.0193608
  14  -1.4905354   1.4822763  -1.4270524
  14  -1.4905351   1.4822763   4.0193608
  14   3.9558769  -3.9641361  -1.4270522
  14   3.9558772  -3.9641361   4.0193611
  14   3.9558779   1.4822773  -1.4270521
  14   3.9558783   1.4822773   4.0193611
  14  -2.7467788  -2.7277458  -0.3039657
  14  -2.7467778   2.7186676  -0.3039656
  14   2.6996346  -2.7277448  -0.3039653
  14   2.6996356   2.7186686  -0.3039653
  14  -1.2583534  -1.2527563  -4.1174999
  14  -1.2583531  -1.2527562   1.3289133
  14  -1.2583524   4.1936571  -4.1174999
  14  -1.2583521   4.1936572   1.3289134
  14   4.1880600  -1.2527553  -4.1174996
  14   4.1880603  -1.2527552   1.3289136
  14   4.1880610   4.1936581  -4.1174996
  14   4.1880613   4.1936582   1.3289137
ATOMS    6
  32  -0.0076502  -0.0014571   0.0626873
  14  -4.1790100  -4.1728633  -4.1098003
  14  -4.1790096  -4.1728633   1.3366129
  14  -4.1790090   1.2735501  -4.1098003
  14  -4.1790086   1.2735501   1.3366130
  14   1.2674034  -4.1728623  -4.1098000
  14   1.2674037  -4.1728623   1.3366132
  14   1.2674044   1.2735511  -4.1098000
  14   1.2674047   1.2735511   1.3366133
  14   0.0407975  -2.7280693  -2.5120244
  14   0.0407978  -2.7280692   2.9343889
  14   0.0407985   2.7183441  -2.5120243
  14   0.0407988   2.7183442   2.9343890
  14  -3.9357267  -1.5197578  -1.4561457
  14  -3.9357264  -1.5197578   3.9902676
  14  -3.9357257   3.9266556  -1.4561456
  14  -3.9357254   3.9266556   3.9902677
  14   1.5106867  -1.5197568  -1.4561453
  14   1.5106870  -1.5197568   3.9902679
  14   1.5106877   3.9266566  -1.4561453
  14   1.5106880   3.9266566   3.9902680
  14  -2.7489017   0.0077684  -2.5120245
  14  -2.7489014   0.0077685   2.9343888
  14   2.6975116   0.0077694  -2.5120242
  14   2.6975119   0.0077695   2.9343891
  14  -1.5012601  -3.9542244  -1.4315431
  14  -1.5012598  -3.9542243   4.0148702
  14  -1.5012591   1.4921890  -1.4315430
  14  -1.5012588   1.4921891   4.0148702
  14   3.9451533  -3.9542234  -1.4315428
  14   3.9451536  -3.9542233   4.0148705
  14   3.9451543   1.4921900  -1.4315427
  14   3.9451546   1.4921901   4.0148705
  14  -2.7490932  -2.7281915  -0.3338105
  14  -2.7490922   2.7182219  -0.3338105
  14   2.6973202  -2.7281905  -0.3338102
  14   2.6973212   2.7182229  -0.3338101
  14  -1.2462800  -1.2401333  -4.1247237
  14  -1.2462797  -1.2401332   1.3216895
  14  -1.2462790   4.2062801  -4.1247237
  14  -1.2462786   4.2062802   1.3216896
  14   4.2001334  -1.2401323  -4.1247234
  14   4.2001337  -1.2401322   1.3216898
  14   4.2001344   4.2062811  -4.1247234
  14   4.2001347   4.2062812   1.3216899
ATOMS    7
  32  -0.0079998  -0.0015237   0.0655523
  14  -4.1842161  -4.1777886  -4.1118435
  14  -4.1842158  -4.1777885   1.3345697
  14  -4.1842151   1.2686248  -4.1118435
  14  -4.1842148   1.2686249   1.3345698
  14   1.2621973  -4.1777876  -4.1118432
  14   1.2621976  -4.1777875   1.3345700
  14   1.2621983   1.2686258  -4.1118432
  14   1.2621986   1.2686259   1.3345701
  14   0.0426620  -2.7282915  -2.5023729
  14   0.0426624  -2.7282914   2.9440404
  14   0.0426630   2.7181219  -2.5023728
  14   0.0426634   2.7181219   2.9440405
  14  -3.9298142  -1.5260849  -1.4595655
  14  -3.9298139  -1.5260848   3.9868477
  14  -3.9298132   3.9203285  -1.4595654
  14  -3.9298129   3.9203286   3.9868478
  14   1.5165992  -1.5260839  -1.4595652
  14   1.5165995  -1.5260838   3.9868481
  14   1.5166002   3.9203295  -1.4595651
  14   1.5166005   3.9203296   3.9868481
  14  -2.7500761   0.0081235  -2.5023730
  14  -2.7500758   0.0081236   2.9440403
  14   2.6963373   0.0081245  -2.5023727
  14   2.6963376   0.0081246   2.9440406
  14  -1.5067417  -3.9491573  -1.4338386
  14  -1.5067414  -3.9491572   4.0125747
  14  -1.5067407   1.4972561  -1.4338385
  14  -1.5067404   1.4972561   4.0125748
  14   3.9396717  -3.9491563  -1.4338383
  14   3.9396720  -3.9491562   4.0125750
  14   3.9396727   1.4972571  -1.4338382
  14   3.9396730   1.4972571   4.0125751
  14  -2.7502762  -2.7284193  -0.3490664
  14  -2.7502752   2.7179941  -0.3490663
  14   2.6961372  -2.7284183  -0.3490660
  14   2.6961382   2.7179951  -0.3490660
  14  -1.2401084  -1.2336808  -4.1284163
  14  -1.2401081  -1.2336807   1.3179969
  14  -1.2401074   4.2127326  -4.1284163
  14  -1.2401070   4.2127327   1.3179970
  14   4.2063050  -1.2336798  -4.1284160
  14   4.2063053  -1.2336797   1.3179972
  14   4.2063060   4.2127336  -4.1284160
  14   4.2063063   4.2127337   1.3179973
ATOMS    8
  32  -0.0079998  -0.0015237   0.0655523
  14  -4.1842161  -4.1777886  -4.1118435
  14  -4.1842158  -4.1777885   1.3345697
  14  -4.1842151   1.2686248  -4.1118435
  14  -4.1842148   1.2686249   1.3345698
  14   1.2621973  -4.1777876  -4.1118432
  14   1.2621976  -4.1777875   1.3345700
  14   1.2621983   1.2686258  -4.1118432
  14   1.2621986   1.2686259   1.3345701
  14   0.0426620  -2.7282915  -2.5023729
  14   0.0426624  -2.7282914   2.9440404
  14   0.0426630   2.7181219  -2.5023728
  14   0.0426634   2.7181219   2.9440405
  14  -3.9298142  -1.5260849  -1.4595655
  14  -3.9298139  -1.5260848   3.9868477
  14  -3.9298132   3.9203285  -1.4595654
  14  -3.9298129   3.9203286   3.9868478
  14   1.5165992  -1.5260839  -1.4595652
  14   1.5165995  -1.5260838   3.9868481
  14   1.5166002   3.9203295  -1.4595651
  14   1.5166005   3.9203296   3.9868481
  14  -2.7500761   0.0081235  -2.5023730
  14  -2.7500758   0.0081236   2.9440403
  14   2.6963373   0.0081245  -2.5023727
  14   2.6963376   0.0081246   2.9440406
  14  -1.5067417  -3.9491573  -1.4338386
  14  -1.5067414  -3.9491572   4.0125747
  14  -1.5067407   1.4972561  -1.4338385
  14  -1.5067404   1.4972561   4.0125748
  14   3.9396717  -3.9491563  -1.4338383
  14   3.9396720  -3.9491562   4.0125750
  14   3.9396727   1.4972571  -1.4338382
  14   3.9396730   1.4972571   4.0125751
  14  -2.7502762  -2.7284193  -0.3490664
  14  -2.7502752   2.7179941  -0.3490663
  14   2.6961372  -2.7284183  -0.3490660
  14   2.6961382   2.7179951  -0.3490660
  14  -1.2401084  -1.2336808  -4.1284163
  14  -1.2401081  -1.2336807   1.3179969
  14  -1.2401074   4.2127326  -4.1284163
  14  -1.2401070   4.2127327   1.3179970
  14   4.2063050  -1.2336798  -4.1284160
  14   4.2063053  -1.2336797   1.3179972
  14   4.2063060   4.2127336  -4.1284160
  14   4.2063063   4.2127337   1.3179973
ATOMS    9
  32  -0.0076502  -0.0014571   0.0626873
  14  -4.1790100  -4.1728633  -4.1098003
  14  -4.1790096  -4.1728633   1.3366129
  14  -4.1790090   1.2735501  -4.1098003
  14  -4.1790086   1.2735501   1.3366130
  14   1.2674034  -4.1728623  -4.1098000
  14   1.2674037  -4.1728623   1.3366132
  14   1.2674044   1.2735511  -4.1098000
  14   1.2674047   1.2735511   1.3366133
  14   0.0407975  -2.7280693  -2.5120244
  14   0.0407978  -2.7280692   2.9343889
  14   0.0407985   2.7183441  -2.5120243
  14   0.0407988   2.7183442   2.9343890
  14  -3.9357267  -1.5197578  -1.4561457
  14  -3.9357264  -1.5197578   3.9902676
  14  -3.9357257   3.9266556  -1.4561456
  14  -3.9357254   3.9266556   3.9902677
  14   1.5106867  -1.5197568  -1.4561453
  14   1.5106870  -1.5197568   3.9902679
  14   1.5106877   3.9266566  -1.4561453
  14   1.5106880   3.9266566   3.9902680
  14  -2.7489017   0.0077684  -2.5120245
  14  -2.7489014   0.0077685   2.9343888
  14   2.6975116   0.0077694  -2.5120242
  14   2.6975119   0.0077695   2.9343891
  14  -1.5012601  -3.9542244  -1.4315431
  14  -1.5012598  -3.9542243   4.0148702
  14  -1.5012591   1.4921890  -1.4315430
  14  -1.5012588   1.4921891   4.0148702
  14   3.9451533  -3.9542234  -1.4315428
  14   3.9451536  -3.9542233   4.0148705
  14   3.9451543   1.4921900  -1.4315427
  14   3.9451546   1.4921901   4.0148705
  14  -2.7490932  -2.7281915  -0.3338105
  14  -2.7490922   2.7182219  -0.3338105
  14   2.6973202  -2.7281905  -0.3338102
  14   2.6973212   2.7182229  -0.3338101
  14  -1.2462800  -1.2401333  -4.1247237
  14  -1.2462797  -1.2401332   1.3216895
  14  -1.2462790   4.2062801  -4.1247237
  14  -1.2462786   4.2062802   1.3216896
  14   4.2001334  -1.2401323  -4.1247234
  14   4.2001337  -1.2401322   1.3216898
  14   4.2001344   4.2062811  -4.1247234
  14   4.2001347   4.2062812   1.3216899
ATOMS   10
  32  -0.0069663  -0.0013268   0.0570826
  14  -4.1688251  -4.1632280  -4.1058032
  14  -4.1688248  -4.1632280   1.3406100
  14  -4.1688241   1.2831854  -4.1058032
  14  -4.1688238   1.2831854   1.3406101
  14   1.2775882  -4.1632270  -4.1058029
  14   1.2775886  -4.1632270   1.3406103
  14   1.2775892   1.2831864  -4.1058029
  14   1.2775896   1.2831864   1.3406104
  14   0.0371498  -2.7276345  -2.5309055
  14   0.0371501  -2.7276344   2.9155078
  14   0.0371508   2.7187789  -2.5309054
  14   0.0371511   2.7187789   2.9155079
  14  -3.9472933  -1.5073803  -1.4494554
  14  -3.9472930  -1.5073802   3.9969579
  14  -3.9472923   3.9390331  -1.4494553
  14  -3.9472920   3.9390332   3.9969580
  14   1.4991201  -1.5073793  -1.4494551
  14   1.4991204  -1.5073792   3.9969582
  14   1.4991211   3.9390341  -1.4494550
  14   1.4991214   3.9390342   3.9969583
  14  -2.7466044   0.0070738  -2.5309056
  14  -2.7466041   0.0070739   2.9155077
  14   2.6998090   0.0070748  -2.5309053
  14   2.6998093   0.0070749   2.9155080
  14  -1.4905364  -3.9641371  -1.4270525
  14  -1.4905361  -3.9641371   4.0193608
  14  -1.4905354   1.4822763  -1.4270524
  14  -1.4905351   1.4822763   4.0193608
  14   3.9558769  -3.9641361  -1.4270522
  14   3.9558772  -3.9641361   4.0193611
  14   3.9558779   1.4822773  -1.4270521
  14   3.9558783   1.4822773   4.0193611
  14  -2.7467788  -2.7277458  -0.3039657
  14  -2.7467778   2.7186676  -0.3039656
  14   2.6996346  -2.7277448  -0.3039653
  14   2.6996356   2.7186686  -0.3039653
  14  -1.2583534  -1.2527563  -4.1174999
  14  -1.2583531  -1.2527562   1.3289133
  14  -1.2583524   4.1936571  -4.1174999
  14  -1.2583521   4.1936572   1.3289134
  14   4.1880600  -1.2527553  -4.1174996
  14   4.1880603  -1.2527552   1.3289136
  14   4.1880610   4.1936581  -4.1174996
  14   4.1880613   4.1936582   1.3289137
ATOMS   11
  32  -0.0059779  -0.0011385   0.0489830
  14  -4.1541068  -4.1493038  -4.1000269
  14  -4.1541065  -4.1493037   1.3463863
  14  -4.1541058   1.2971096  -4.1000269
  14  -4.1541055   1.2971096   1.3463864
  14   1.2923066  -4.1493028  -4.1000266
  14   1.2923069  -4.1493027   1.3463866
  14   1.2923076   1.2971106  -4.1000265
  14   1.2923079   1.2971106   1.3463867
  14   0.0318785  -2.7270062  -2.5581911
  14   0.0318788  -2.7270062   2.8882222
  14   0.0318795   2.7194072  -2.5581910
  14   0.0318798   2.7194072   2.8882223
  14  -3.9640085  -1.4894931  -1.4397871
  14  -3.9640082  -1.4894930   4.0066262
  14  -3.9640075   3.9569203  -1.4397870
  14  -3.9640072   3.9569203   4.0066263
  14   1.4824048  -1.4894921  -1.4397867
  14   1.4824052  -1.4894920   4.0066265
  14   1.4824058   3.9569213  -1.4397867
  14   1.4824062   3.9569213   4.0066266
  14  -2.7432845   0.0060700  -2.5581912
  14  -2.7432842   0.0060700   2.8882221
  14   2.7031289   0.0060710  -2.5581909
  14   2.7031292   0.0060710   2.8882224
  14  -1.4750394  -3.9784623  -1.4205630
  14  -1.4750391  -3.9784622   4.0258502
  14  -1.4750384   1.4679511  -1.4205630
  14  -1.4750381   1.4679512   4.0258503
  14   3.9713740  -3.9784613  -1.4205627
  14   3.9713743  -3.9784612   4.0258505
  14   3.9713750   1.4679521  -1.4205626
  14   3.9713753   1.4679522   4.0258506
  14  -2.7434342  -2.7271018  -0.2608361
  14  -2.7434332   2.7193116  -0.2608360
  14   2.7029792  -2.7271008  -0.2608358
  14   2.7029802   2.7193126  -0.2608357
  14  -1.2758011  -1.2709981  -4.1070606
  14  -1.2758008  -1.2709980   1.3393526
  14  -1.2758001   4.1754153  -4.1070606
  14  -1.2757998   4.1754154   1.3393527
  14   4.1706123  -1.2709971  -4.1070603
  14   4.1706126  -1.2709970   1.3393529
  14   4.1706133   4.1754163  -4.1070603
  14   4.1706136   4.1754164   1.3393530
ATOMS   12
  32  -0.0047284  -0.0009004   0.0387427
  14  -4.1354982  -4.1316993  -4.0927239
  14  -4.1354979  -4.1316992   1.3536894
  14  -4.1354972   1.3147141  -4.0927238
  14  -4.1354969   1.3147142   1.3536895
  14   1.3109152  -4.1316983  -4.0927235
  14   1.3109155  -4.1316982   1.3536897
  14   1.3109162   1.3147151  -4.0927235
  14   1.3109165   1.3147152   1.3536898
  14   0.0252139  -2.7262119  -2.5926886
  14   0.0252142  -2.7262118   2.8537247
  14   0.0252149   2.7202015  -2.5926885
  14   0.0252152   2.7202016   2.8537247
  14  -3.9851418  -1.4668782  -1.4275633
  14  -3.9851415  -1.4668781   4.0188500
  14  -3.9851408   3.9795352  -1.4275632
  14  -3.9851405   3.9795353   4.0188501
  14   1.4612716  -1.4668772  -1.4275630
  14   1.4612719  -1.4668771   4.0188503
  14   1.4612726   3.9795362  -1.4275629
  14   1.4612729   3.9795363   4.0188504
  14  -2.7390871   0.0048008  -2.5926887
  14  -2.7390868   0.0048009   2.8537245
  14   2.7073263   0.0048018  -2.5926884
  14   2.7073266   0.0048019   2.8537248
  14  -1.4554463  -3.9965737  -1.4123583
  14  -1.4554460  -3.9965736   4.0340550
  14  -1.4554453   1.4498397  -1.4123582
  14  -1.4554450   1.4498398   4.0340551
  14   3.9909671  -3.9965727  -1.4123580
  14   3.9909674  -3.9965726   4.0340553
  14   3.9909681   1.4498407  -1.4123579
  14   3.9909684   1.4498408   4.0340554
  14  -2.7392056  -2.7262876  -0.2063068
  14  -2.7392046   2.7201258  -0.2063067
  14   2.7072078  -2.7262866  -0.2063065
  14   2.7072088   2.7201268  -0.2063064
  14  -1.2978604  -1.2940614  -4.0938621
  14  -1.2978601  -1.2940614   1.3525512
  14  -1.2978594   4.1523520  -4.0938620
  14  -1.2978591   4.1523520   1.3525513
  14   4.1485530  -1.2940604  -4.0938618
  14   4.1485533  -1.2940604   1.3525515
  14   4.1485540   4.1523530  -4.0938617
  14   4.1485543   4.1523530   1.3525516
ATOMS   13
  32  -0.0032722  -0.0006229   0.0268091
  14  -4.1138126  -4.1111837  -4.0842132
  14  -4.1138123  -4.1111837   1.3622001
  14  -4.1138116   1.3352296  -4.0842131
  14  -4.1138113   1.3352297   1.3622001
  14   1.3326007  -4.1111827  -4.0842129
  14   1.3326010  -4.1111827   1.3622004
  14   1.3326017   1.3352307  -4.0842128
  14   1.3326020   1.3352307   1.3622004
  14   0.0174473  -2.7252862  -2.6328904
  14   0.0174477  -2.7252861   2.8135229
  14   0.0174483   2.7211272  -2.6328903
  14   0.0174487   2.7211273   2.8135230
  14  -4.0097695  -1.4405238  -1.4133183
  14  -4.0097692  -1.4405237   4.0330950
  14  -4.0097685   4.0058896  -1.4133182
  14  -4.0097682   4.0058897   4.0330951
  14   1.4366439  -1.4405228  -1.4133180
  14   1.4366442  -1.4405227   4.0330953
  14   1.4366449   4.0058906  -1.4133179
  14   1.4366452   4.0058907   4.0330954
  14  -2.7341956   0.0033218  -2.6328905
  14  -2.7341953   0.0033219   2.8135228
  14   2.7122177   0.0033228  -2.6328902
  14   2.7122181   0.0033229   2.8135231
  14  -1.4326134  -4.0176799  -1.4027969
  14  -1.4326131  -4.0176799   4.0436164
  14  -1.4326124   1.4287335  -1.4027968
  14  -1.4326121   1.4287335   4.0436165
  14   4.0138000  -4.0176789  -1.4027966
  14   4.0138003  -4.0176789   4.0436167
  14   4.0138010   1.4287345  -1.4027965
  14   4.0138013   1.4287345   4.0436168
  14  -2.7342778  -2.7253387  -0.1427609
  14  -2.7342768   2.7210747  -0.1427608
  14   2.7121356  -2.7253377  -0.1427606
  14   2.7121366   2.7210757  -0.1427605
  14  -1.3235673  -1.3209383  -4.0784811
  14  -1.3235670  -1.3209383   1.3679321
  14  -1.3235663   4.1254750  -4.0784811
  14  -1.3235660   4.1254751   1.3679322
  14   4.1228461  -1.3209373  -4.0784808
  14   4.1228464  -1.3209373   1.3679324
  14   4.1228471   4.1254760  -4.0784808
  14   4.1228474   4.1254761   1.3679325
ATOMS   14
  32  -0.0016730  -0.0003182   0.0137037
  14  -4.0899979  -4.0886539  -4.0748669
  14  -4.0899976  -4.0886538   1.3715463
  14  -4.0899969   1.3577595  -4.0748669
  14  -4.0899966   1.3577596   1.3715464
  14   1.3564155  -4.0886529  -4.0748666
  14   1.3564158  -4.0886528   1.3715466
  14   1.3564165   1.3577605  -4.0748666
  14   1.3564168   1.3577606   1.3715467
  14   0.0089182  -2.7242696  -2.6770394
  14   0.0089185  -2.7242695   2.7693739
  14   0.0089192   2.7221438  -2.6770393
  14   0.0089195   2.7221439   2.7693739
  14  -4.0368153  -1.4115818  -1.3976747
  14  -4.0368150  -1.4115817   4.0487386
  14  -4.0368143   4.0348316  -1.3976746
  14  -4.0368140   4.0348316   4.0487387
  14   1.4095981  -1.4115808  -1.3976743
  14   1.4095984  -1.4115807   4.0487389
  14   1.4095991   4.0348326  -1.3976743
  14   1.4095994   4.0348326   4.0487390
  14  -2.7288239   0.0016975  -2.6770395
  14  -2.7288236   0.0016976   2.7693737
  14   2.7175895   0.0016985  -2.6770392
  14   2.7175898   0.0016986   2.7693741
  14  -1.4075387  -4.0408585  -1.3922967
  14  -1.4075383  -4.0408584   4.0541166
  14  -1.4075377   1.4055549  -1.3922966
  14  -1.4075373   1.4055550   4.0541167
  14   4.0388747  -4.0408575  -1.3922964
  14   4.0388750  -4.0408574   4.0541169
  14   4.0388757   1.4055559  -1.3922963
  14   4.0388760   1.4055560   4.0541170
  14  -2.7288661  -2.7242967  -0.0729758
  14  -2.7288651   2.7221167  -0.0729757
  14   2.7175473  -2.7242957  -0.0729755
  14   2.7175483   2.7221177  -0.0729754
  14  -1.3517982  -1.3504542  -4.0615900
  14  -1.3517979  -1.3504541   1.3848233
  14  -1.3517972   4.0959592  -4.0615899
  14  -1.3517969   4.0959593   1.3848234
  14   4.0946152  -1.3504532  -4.0615897
  14   4.0946155  -1.3504531   1.3848236
  14   4.0946162   4.0959602  -4.0615896
  14   4.0946165   4.0959603   1.3848237
ATOMS   15
  32  -0.0000007   0.0000004  -0.0000005
  14  -4.0650947  -4.0650944  -4.0650935
  14  -4.0650944  -4.0650943   1.3813197
  14  -4.0650937   1.3813190  -4.0650935
  14  -4.0650934   1.3813191   1.3813198
  14   1.3813187  -4.0650934  -4.0650932
  14   1.3813190  -4.0650933   1.3813200
  14   1.3813197   1.3813200  -4.0650932
  14   1.3813200   1.3813201   1.3813201
  14  -0.0000008  -2.7232066  -2.7232061
  14  -0.0000004  -2.7232065   2.7232072
  14   0.0000002   2.7232068  -2.7232060
  14   0.0000006   2.7232069   2.7232072
  14  -4.0650971  -1.3813171  -1.3813161
  14  -4.0650968  -1.3813170   4.0650972
  14  -4.0650961   4.0650963  -1.3813160
  14  -4.0650958   4.0650964   4.0650973
  14   1.3813162  -1.3813161  -1.3813157
  14   1.3813165  -1.3813160   4.0650975
  14   1.3813172   4.0650973  -1.3813157
  14   1.3813175   4.0650974   4.0650976
  14  -2.7232067  -0.0000009  -2.7232062
  14  -2.7232064  -0.0000009   2.7232070
  14   2.7232067   0.0000001  -2.7232059
  14   2.7232070   0.0000001   2.7232073
  14  -1.3813179  -4.0650963  -1.3813166
  14  -1.3813176  -4.0650962   4.0650967
  14  -1.3813169   1.3813171  -1.3813165
  14  -1.3813166   1.3813171   4.0650968
  14   4.0650954  -4.0650953  -1.3813163
  14   4.0650957  -4.0650952   4.0650970
  14   4.0650964   1.3813181  -1.3813162
  14   4.0650968   1.3813181   4.0650971
  14  -2.7232071  -2.7232070  -0.0000013
  14  -2.7232061   2.7232064  -0.0000013
  14   2.7232063  -2.7232060  -0.0000010
  14   2.7232073   2.7232074  -0.0000010
  14  -1.3813193  -1.3813190  -4.0439269
  14  -1.3813190  -1.3813189   1.4024864
  14  -1.3813183   4.0650944  -4.0439268
  14  -1.3813180   4.0650945   1.4024865
  14   4.0650940  -1.3813180  -4.0439266
  14   4.0650944  -1.3813179   1.4024867
  14   4.0650951   4.0650954  -4.0439265
  14   4.0650954   4.0650955   1.4024868
ATOMS   16
  32   0.0016715   0.0003190  -0.0137048
  14  -4.0401916  -4.0415349  -4.0553201
  14  -4.0401913  -4.0415348   1.3910932
  14  -4.0401906   1.4048785  -4.0553200
  14  -4.0401903   1.4048786   1.3910932
  14   1.4062218  -4.0415339  -4.0553198
  14   1.4062221  -4.0415338   1.3910935
  14   1.4062228   1.4048795  -4.0553197
  14   1.4062231   1.4048796   1.3910935
  14  -0.0089197  -2.7221435  -2.7693728
  14  -0.0089194  -2.7221434   2.6770404
  14  -0.0089187   2.7242699  -2.7693728
  14  -0.0089184   2.7242700   2.6770405
  14  -4.0933790  -1.3510524  -1.3649575
  14  -4.0933787  -1.3510523   4.0814558
  14  -4.0933780   4.0953610  -1.3649574
  14  -4.0933777   4.0953611   4.0814559
  14   1.3530344  -1.3510514  -1.3649572
  14   1.3530347  -1.3510513   4.0814561
  14   1.3530354   4.0953620  -1.3649571
  14   1.3530357   4.0953621   4.0814562
  14  -2.7175894  -0.0016994  -2.7693730
  14  -2.7175891  -0.0016993   2.6770403
  14   2.7288239  -0.0016984  -2.7693726
  14   2.7288243  -0.0016983   2.6770406
  14  -1.3550972  -4.0893342  -1.3703365
  14  -1.3550969  -4.0893341   4.0760768
  14  -1.3550962   1.3570792  -1.3703364
  14  -1.3550959   1.3570793   4.0760768
  14   4.0913162  -4.0893332  -1.3703362
  14   4.0913165  -4.0893331   4.0760771
  14   4.0913172   1.3570802  -1.3703361
  14   4.0913175   1.3570803   4.0760772
  14  -2.7175482  -2.7221173   0.0729731
  14  -2.7175472   2.7242960   0.0729732
  14   2.7288652  -2.7221163   0.0729734
  14   2.7288662   2.7242970   0.0729735
  14  -1.4108404  -1.4121837  -4.0262638
  14  -1.4108401  -1.4121837   1.4201495
  14  -1.4108394   4.0342297  -4.0262637
  14  -1.4108391   4.0342297   1.4201496
  14   4.0355729  -1.4121827  -4.0262635
  14   4.0355732  -1.4121827   1.4201498
  14   4.0355739   4.0342307  -4.0262634
  14   4.0355742   4.0342307   1.4201499
ATOMS   17
  32   0.0032707   0.0006237  -0.0268101
  14  -4.0163768  -4.0190051  -4.0459739
  14  -4.0163765  -4.0190050   1.4004394
  14  -4.0163758   1.4274083  -4.0459738
  14  -4.0163755   1.4274084   1.4004395