# --- AXSF block for ---- iev =    22  freq =     511.245954 cm-1
ANIMSTEPS   30
ATOMS    1
  32   0.0064073  -0.0039625  -0.0006773
  14  -4.1193832  -4.0262704  -4.0557790
  14  -4.1193829  -4.0262703   1.3906342
  14  -4.1193822   1.4201430  -4.0557790
  14  -4.1193819   1.4201430   1.3906343
  14   1.3270302  -4.0262694  -4.0557787
  14   1.3270305  -4.0262693   1.3906345
  14   1.3270312   1.4201440  -4.0557787
  14   1.3270315   1.4201440   1.3906346
  14   0.0660570  -2.7542983  -2.7285129
  14   0.0660573  -2.7542982   2.7179004
  14   0.0660580   2.6921151  -2.7285128
  14   0.0660583   2.6921152   2.7179005
  14  -4.1024072  -1.3659633  -1.3954718
  14  -4.1024069  -1.3659633   4.0509415
  14  -4.1024062   4.0804501  -1.3954717
  14  -4.1024059   4.0804501   4.0509416
  14   1.3440061  -1.3659623  -1.3954714
  14   1.3440065  -1.3659623   4.0509418
  14   1.3440071   4.0804511  -1.3954714
  14   1.3440075   4.0804511   4.0509419
  14  -2.6729227  -0.0408435  -2.7285097
  14  -2.6729224  -0.0408434   2.7179035
  14   2.7734907  -0.0408425  -2.7285094
  14   2.7734910  -0.0408424   2.7179038
  14  -1.4211023  -4.0472552  -1.3575013
  14  -1.4211020  -4.0472551   4.0889120
  14  -1.4211013   1.3991582  -1.3575012
  14  -1.4211010   1.3991583   4.0889121
  14   4.0253110  -4.0472542  -1.3575010
  14   4.0253113  -4.0472541   4.0889123
  14   4.0253120   1.3991592  -1.3575009
  14   4.0253123   1.3991593   4.0889124
  14  -2.6729232  -2.7542987  -0.0069701
  14  -2.6729222   2.6921146  -0.0069700
  14   2.7734902  -2.7542977  -0.0069698
  14   2.7734912   2.6921156  -0.0069697
  14  -1.4331172  -1.3400532  -4.0435722
  14  -1.4331169  -1.3400532   1.4028411
  14  -1.4331162   4.1063602  -4.0435721
  14  -1.4331159   4.1063602   1.4028412
  14   4.0132962  -1.3400522  -4.0435719
  14   4.0132965  -1.3400522   1.4028414
  14   4.0132972   4.1063612  -4.0435718
  14   4.0132975   4.1063612   1.4028415
ATOMS    2
  32   0.0125353  -0.0077521  -0.0013244
  14  -4.1712990  -3.9891432  -4.0468716
  14  -4.1712987  -3.9891432   1.3995417
  14  -4.1712980   1.4572702  -4.0468715
  14  -4.1712977   1.4572702   1.3995417
  14   1.2751144  -3.9891422  -4.0468713
  14   1.2751147  -3.9891422   1.3995420
  14   1.2751154   1.4572712  -4.0468712
  14   1.2751157   1.4572712   1.3995420
  14   0.1292277  -2.7840312  -2.7335877
  14   0.1292280  -2.7840311   2.7128256
  14   0.1292287   2.6623822  -2.7335876
  14   0.1292290   2.6623823   2.7128256
  14  -4.1380867  -1.3512806  -1.4090088
  14  -4.1380864  -1.3512805   4.0374045
  14  -4.1380857   4.0951328  -1.4090087
  14  -4.1380854   4.0951329   4.0374046
  14   1.3083267  -1.3512796  -1.4090085
  14   1.3083270  -1.3512795   4.0374048
  14   1.3083277   4.0951338  -1.4090084
  14   1.3083280   4.0951339   4.0374049
  14  -2.6248364  -0.0799009  -2.7335815
  14  -2.6248361  -0.0799009   2.7128318
  14   2.8215770  -0.0798999  -2.7335811
  14   2.8215773  -0.0798999   2.7128321
  14  -1.4591480  -4.0301938  -1.3347268
  14  -1.4591477  -4.0301937   4.1116864
  14  -1.4591470   1.4162196  -1.3347268
  14  -1.4591467   1.4162196   4.1116865
  14   3.9872654  -4.0301928  -1.3347265
  14   3.9872657  -4.0301927   4.1116867
  14   3.9872664   1.4162206  -1.3347264
  14   3.9872667   1.4162206   4.1116868
  14  -2.6248368  -2.7840316  -0.0136343
  14  -2.6248358   2.6623818  -0.0136343
  14   2.8215765  -2.7840306  -0.0136340
  14   2.8215775   2.6623828  -0.0136339
  14  -1.4826512  -1.3005910  -4.0432330
  14  -1.4826509  -1.3005909   1.4031803
  14  -1.4826502   4.1458224  -4.0432329
  14  -1.4826499   4.1458225   1.4031804
  14   3.9637621  -1.3005900  -4.0432327
  14   3.9637624  -1.3005899   1.4031806
  14   3.9637631   4.1458234  -4.0432326
  14   3.9637634   4.1458235   1.4031807
ATOMS    3
  32   0.0181154  -0.0112030  -0.0019137
  14  -4.2185731  -3.9553355  -4.0387606
  14  -4.2185728  -3.9553354   1.4076527
  14  -4.2185721   1.4910779  -4.0387605
  14  -4.2185718   1.4910780   1.4076527
  14   1.2278402  -3.9553345  -4.0387603
  14   1.2278406  -3.9553344   1.4076530
  14   1.2278412   1.4910789  -4.0387602
  14   1.2278416   1.4910790   1.4076531
  14   0.1867505  -2.8111057  -2.7382088
  14   0.1867508  -2.8111057   2.7082045
  14   0.1867515   2.6353077  -2.7382087
  14   0.1867518   2.6353077   2.7082045
  14  -4.1705762  -1.3379106  -1.4213355
  14  -4.1705759  -1.3379105   4.0250778
  14  -4.1705752   4.1085028  -1.4213354
  14  -4.1705749   4.1085029   4.0250779
  14   1.2758372  -1.3379096  -1.4213352
  14   1.2758375  -1.3379095   4.0250781
  14   1.2758382   4.1085038  -1.4213351
  14   1.2758385   4.1085039   4.0250782
  14  -2.5810493  -0.1154664  -2.7381997
  14  -2.5810490  -0.1154663   2.7082135
  14   2.8653641  -0.1154654  -2.7381994
  14   2.8653644  -0.1154653   2.7082139
  14  -1.4937921  -4.0146578  -1.3139886
  14  -1.4937918  -4.0146578   4.1324247
  14  -1.4937911   1.4317556  -1.3139885
  14  -1.4937908   1.4317556   4.1324248
  14   3.9526213  -4.0146568  -1.3139883
  14   3.9526216  -4.0146568   4.1324250
  14   3.9526223   1.4317566  -1.3139882
  14   3.9526226   1.4317566   4.1324251
  14  -2.5810498  -2.8111062  -0.0197027
  14  -2.5810488   2.6353072  -0.0197026
  14   2.8653636  -2.8111052  -0.0197024
  14   2.8653646   2.6353082  -0.0197023
  14  -1.5277566  -1.2646570  -4.0429241
  14  -1.5277563  -1.2646569   1.4034892
  14  -1.5277556   4.1817564  -4.0429240
  14  -1.5277553   4.1817565   1.4034892
  14   3.9186568  -1.2646560  -4.0429238
  14   3.9186571  -1.2646559   1.4034895
  14   3.9186578   4.1817574  -4.0429237
  14   3.9186581   4.1817575   1.4034896
ATOMS    4
  32   0.0229037  -0.0141642  -0.0024194
  14  -4.2591395  -3.9263247  -4.0318004
  14  -4.2591392  -3.9263246   1.4146128
  14  -4.2591385   1.5200887  -4.0318004
  14  -4.2591382   1.5200888   1.4146129
  14   1.1872738  -3.9263237  -4.0318001
  14   1.1872741  -3.9263236   1.4146131
  14   1.1872748   1.5200897  -4.0318001
  14   1.1872751   1.5200898   1.4146132
  14   0.2361113  -2.8343387  -2.7421742
  14   0.2361117  -2.8343386   2.7042391
  14   0.2361123   2.6120747  -2.7421741
  14   0.2361127   2.6120748   2.7042391
  14  -4.1984557  -1.3264376  -1.4319132
  14  -4.1984554  -1.3264376   4.0145001
  14  -4.1984547   4.1199758  -1.4319131
  14  -4.1984544   4.1199758   4.0145002
  14   1.2479577  -1.3264366  -1.4319129
  14   1.2479580  -1.3264366   4.0145004
  14   1.2479587   4.1199768  -1.4319128
  14   1.2479590   4.1199768   4.0145005
  14  -2.5434752  -0.1459855  -2.7421627
  14  -2.5434749  -0.1459854   2.7042506
  14   2.9029382  -0.1459845  -2.7421624
  14   2.9029385  -0.1459844   2.7042509
  14  -1.5235205  -4.0013263  -1.2961929
  14  -1.5235202  -4.0013262   4.1502204
  14  -1.5235195   1.4450871  -1.2961928
  14  -1.5235192   1.4450872   4.1502205
  14   3.9228929  -4.0013253  -1.2961926
  14   3.9228932  -4.0013252   4.1502207
  14   3.9228939   1.4450881  -1.2961925
  14   3.9228942   1.4450882   4.1502208
  14  -2.5434757  -2.8343391  -0.0249101
  14  -2.5434747   2.6120743  -0.0249100
  14   2.9029377  -2.8343381  -0.0249098
  14   2.9029387   2.6120753  -0.0249097
  14  -1.5664619  -1.2338216  -4.0426590
  14  -1.5664616  -1.2338216   1.4037542
  14  -1.5664609   4.2125918  -4.0426590
  14  -1.5664606   4.2125918   1.4037543
  14   3.8799514  -1.2338206  -4.0426587
  14   3.8799517  -1.2338206   1.4037545
  14   3.8799524   4.2125928  -4.0426587
  14   3.8799527   4.2125928   1.4037546
ATOMS    5
  32   0.0266910  -0.0165064  -0.0028194
  14  -4.2912253  -3.9033789  -4.0262954
  14  -4.2912250  -3.9033788   1.4201179
  14  -4.2912243   1.5430345  -4.0262953
  14  -4.2912240   1.5430346   1.4201180
  14   1.1551881  -3.9033779  -4.0262951
  14   1.1551884  -3.9033778   1.4201182
  14   1.1551891   1.5430355  -4.0262950
  14   1.1551894   1.5430356   1.4201183
  14   0.2751530  -2.8527146  -2.7453106
  14   0.2751533  -2.8527145   2.7011026
  14   0.2751540   2.5936988  -2.7453106
  14   0.2751543   2.5936989   2.7011027
  14  -4.2205068  -1.3173632  -1.4402795
  14  -4.2205065  -1.3173631   4.0061338
  14  -4.2205058   4.1290502  -1.4402794
  14  -4.2205055   4.1290503   4.0061338
  14   1.2259066  -1.3173622  -1.4402792
  14   1.2259069  -1.3173621   4.0061341
  14   1.2259076   4.1290512  -1.4402791
  14   1.2259079   4.1290513   4.0061341
  14  -2.5137562  -0.1701243  -2.7452972
  14  -2.5137559  -0.1701243   2.7011161
  14   2.9326572  -0.1701233  -2.7452969
  14   2.9326575  -0.1701233   2.7011164
  14  -1.5470340  -3.9907818  -1.2821175
  14  -1.5470337  -3.9907817   4.1642958
  14  -1.5470330   1.4556316  -1.2821174
  14  -1.5470327   1.4556317   4.1642959
  14   3.8993794  -3.9907808  -1.2821172
  14   3.8993797  -3.9907807   4.1642961
  14   3.8993804   1.4556326  -1.2821171
  14   3.8993807   1.4556327   4.1642962
  14  -2.5137567  -2.8527150  -0.0290288
  14  -2.5137557   2.5936983  -0.0290287
  14   2.9326567  -2.8527140  -0.0290285
  14   2.9326577   2.5936993  -0.0290284
  14  -1.5970757  -1.2094326  -4.0424494
  14  -1.5970754  -1.2094326   1.4039639
  14  -1.5970747   4.2369808  -4.0424493
  14  -1.5970743   4.2369808   1.4039639
  14   3.8493377  -1.2094316  -4.0424491
  14   3.8493380  -1.2094316   1.4039642
  14   3.8493387   4.2369818  -4.0424490
  14   3.8493390   4.2369818   1.4039642
ATOMS    6
  32   0.0293117  -0.0181271  -0.0030962
  14  -4.3134280  -3.8875007  -4.0224859
  14  -4.3134277  -3.8875007   1.4239273
  14  -4.3134270   1.5589127  -4.0224859
  14  -4.3134267   1.5589127   1.4239274
  14   1.1329854  -3.8874997  -4.0224856
  14   1.1329857  -3.8874997   1.4239276
  14   1.1329864   1.5589137  -4.0224856
  14   1.1329867   1.5589137   1.4239277
  14   0.3021691  -2.8654304  -2.7474810
  14   0.3021694  -2.8654303   2.6989323
  14   0.3021701   2.5809830  -2.7474809
  14   0.3021704   2.5809831   2.6989324
  14  -4.2357658  -1.3110839  -1.4460689
  14  -4.2357655  -1.3110838   4.0003444
  14  -4.2357648   4.1353295  -1.4460688
  14  -4.2357645   4.1353296   4.0003445
  14   1.2106476  -1.3110828  -1.4460686
  14   1.2106479  -1.3110828   4.0003447
  14   1.2106486   4.1353305  -1.4460685
  14   1.2106489   4.1353306   4.0003448
  14  -2.4931912  -0.1868280  -2.7474662
  14  -2.4931909  -0.1868279   2.6989471
  14   2.9532222  -0.1868270  -2.7474659
  14   2.9532225  -0.1868269   2.6989474
  14  -1.5633049  -3.9834852  -1.2723776
  14  -1.5633046  -3.9834851   4.1740357
  14  -1.5633039   1.4629282  -1.2723775
  14  -1.5633036   1.4629283   4.1740358
  14   3.8831085  -3.9834841  -1.2723773
  14   3.8831088  -3.9834841   4.1740360
  14   3.8831095   1.4629292  -1.2723772
  14   3.8831098   1.4629293   4.1740361
  14  -2.4931917  -2.8654309  -0.0318788
  14  -2.4931907   2.5809825  -0.0318788
  14   2.9532217  -2.8654299  -0.0318785
  14   2.9532227   2.5809835  -0.0318785
  14  -1.6182598  -1.1925559  -4.0423043
  14  -1.6182595  -1.1925558   1.4041089
  14  -1.6182588   4.2538575  -4.0423043
  14  -1.6182585   4.2538576   1.4041090
  14   3.8281536  -1.1925549  -4.0423040
  14   3.8281539  -1.1925548   1.4041092
  14   3.8281546   4.2538585  -4.0423040
  14   3.8281549   4.2538586   1.4041093
ATOMS    7
  32   0.0306514  -0.0189556  -0.0032377
  14  -4.3247774  -3.8793843  -4.0205387
  14  -4.3247771  -3.8793842   1.4258746
  14  -4.3247764   1.5670291  -4.0205386
  14  -4.3247761   1.5670292   1.4258747
  14   1.1216360  -3.8793833  -4.0205384
  14   1.1216363  -3.8793832   1.4258749
  14   1.1216370   1.5670301  -4.0205383
  14   1.1216373   1.5670302   1.4258750
  14   0.3159789  -2.8719303  -2.7485904
  14   0.3159792  -2.8719303   2.6978229
  14   0.3159799   2.5744830  -2.7485903
  14   0.3159802   2.5744831   2.6978230
  14  -4.2435657  -1.3078740  -1.4490282
  14  -4.2435654  -1.3078740   3.9973851
  14  -4.2435647   4.1385394  -1.4490281
  14  -4.2435644   4.1385394   3.9973851
  14   1.2028477  -1.3078730  -1.4490279
  14   1.2028480  -1.3078730   3.9973854
  14   1.2028487   4.1385404  -1.4490278
  14   1.2028490   4.1385404   3.9973854
  14  -2.4826790  -0.1953664  -2.7485749
  14  -2.4826787  -0.1953663   2.6978383
  14   2.9637344  -0.1953654  -2.7485746
  14   2.9637347  -0.1953653   2.6978386
  14  -1.5716221  -3.9797553  -1.2673988
  14  -1.5716218  -3.9797553   4.1790144
  14  -1.5716211   1.4666581  -1.2673988
  14  -1.5716208   1.4666581   4.1790145
  14   3.8747913  -3.9797543  -1.2673985
  14   3.8747916  -3.9797543   4.1790147
  14   3.8747923   1.4666591  -1.2673984
  14   3.8747926   1.4666591   4.1790148
  14  -2.4826795  -2.8719308  -0.0333357
  14  -2.4826785   2.5744826  -0.0333356
  14   2.9637339  -2.8719298  -0.0333354
  14   2.9637349   2.5744836  -0.0333353
  14  -1.6290885  -1.1839290  -4.0422302
  14  -1.6290882  -1.1839289   1.4041831
  14  -1.6290875   4.2624844  -4.0422301
  14  -1.6290872   4.2624845   1.4041832
  14   3.8173249  -1.1839280  -4.0422299
  14   3.8173252  -1.1839279   1.4041834
  14   3.8173259   4.2624854  -4.0422298
  14   3.8173262   4.2624855   1.4041835
ATOMS    8
  32   0.0306514  -0.0189556  -0.0032377
  14  -4.3247774  -3.8793843  -4.0205387
  14  -4.3247771  -3.8793842   1.4258746
  14  -4.3247764   1.5670291  -4.0205386
  14  -4.3247761   1.5670292   1.4258747
  14   1.1216360  -3.8793833  -4.0205384
  14   1.1216363  -3.8793832   1.4258749
  14   1.1216370   1.5670301  -4.0205383
  14   1.1216373   1.5670302   1.4258750
  14   0.3159789  -2.8719303  -2.7485904
  14   0.3159792  -2.8719303   2.6978229
  14   0.3159799   2.5744830  -2.7485903
  14   0.3159802   2.5744831   2.6978230
  14  -4.2435657  -1.3078740  -1.4490282
  14  -4.2435654  -1.3078740   3.9973851
  14  -4.2435647   4.1385394  -1.4490281
  14  -4.2435644   4.1385394   3.9973851
  14   1.2028477  -1.3078730  -1.4490279
  14   1.2028480  -1.3078730   3.9973854
  14   1.2028487   4.1385404  -1.4490278
  14   1.2028490   4.1385404   3.9973854
  14  -2.4826790  -0.1953664  -2.7485749
  14  -2.4826787  -0.1953663   2.6978383
  14   2.9637344  -0.1953654  -2.7485746
  14   2.9637347  -0.1953653   2.6978386
  14  -1.5716221  -3.9797553  -1.2673988
  14  -1.5716218  -3.9797553   4.1790144
  14  -1.5716211   1.4666581  -1.2673988
  14  -1.5716208   1.4666581   4.1790145
  14   3.8747913  -3.9797543  -1.2673985
  14   3.8747916  -3.9797543   4.1790147
  14   3.8747923   1.4666591  -1.2673984
  14   3.8747926   1.4666591   4.1790148
  14  -2.4826795  -2.8719308  -0.0333357
  14  -2.4826785   2.5744826  -0.0333356
  14   2.9637339  -2.8719298  -0.0333354
  14   2.9637349   2.5744836  -0.0333353
  14  -1.6290885  -1.1839290  -4.0422302
  14  -1.6290882  -1.1839289   1.4041831
  14  -1.6290875   4.2624844  -4.0422301
  14  -1.6290872   4.2624845   1.4041832
  14   3.8173249  -1.1839280  -4.0422299
  14   3.8173252  -1.1839279   1.4041834
  14   3.8173259   4.2624854  -4.0422298
  14   3.8173262   4.2624855   1.4041835
ATOMS    9
  32   0.0293117  -0.0181271  -0.0030962
  14  -4.3134280  -3.8875007  -4.0224859
  14  -4.3134277  -3.8875007   1.4239273
  14  -4.3134270   1.5589127  -4.0224859
  14  -4.3134267   1.5589127   1.4239274
  14   1.1329854  -3.8874997  -4.0224856
  14   1.1329857  -3.8874997   1.4239276
  14   1.1329864   1.5589137  -4.0224856
  14   1.1329867   1.5589137   1.4239277
  14   0.3021691  -2.8654304  -2.7474810
  14   0.3021694  -2.8654303   2.6989323
  14   0.3021701   2.5809830  -2.7474809
  14   0.3021704   2.5809831   2.6989324
  14  -4.2357658  -1.3110839  -1.4460689
  14  -4.2357655  -1.3110838   4.0003444
  14  -4.2357648   4.1353295  -1.4460688
  14  -4.2357645   4.1353296   4.0003445
  14   1.2106476  -1.3110828  -1.4460686
  14   1.2106479  -1.3110828   4.0003447
  14   1.2106486   4.1353305  -1.4460685
  14   1.2106489   4.1353306   4.0003448
  14  -2.4931912  -0.1868280  -2.7474662
  14  -2.4931909  -0.1868279   2.6989471
  14   2.9532222  -0.1868270  -2.7474659
  14   2.9532225  -0.1868269   2.6989474
  14  -1.5633049  -3.9834852  -1.2723776
  14  -1.5633046  -3.9834851   4.1740357
  14  -1.5633039   1.4629282  -1.2723775
  14  -1.5633036   1.4629283   4.1740358
  14   3.8831085  -3.9834841  -1.2723773
  14   3.8831088  -3.9834841   4.1740360
  14   3.8831095   1.4629292  -1.2723772
  14   3.8831098   1.4629293   4.1740361
  14  -2.4931917  -2.8654309  -0.0318788
  14  -2.4931907   2.5809825  -0.0318788
  14   2.9532217  -2.8654299  -0.0318785
  14   2.9532227   2.5809835  -0.0318785
  14  -1.6182598  -1.1925559  -4.0423043
  14  -1.6182595  -1.1925558   1.4041089
  14  -1.6182588   4.2538575  -4.0423043
  14  -1.6182585   4.2538576   1.4041090
  14   3.8281536  -1.1925549  -4.0423040
  14   3.8281539  -1.1925548   1.4041092
  14   3.8281546   4.2538585  -4.0423040
  14   3.8281549   4.2538586   1.4041093
ATOMS   10
  32   0.0266910  -0.0165064  -0.0028194
  14  -4.2912253  -3.9033789  -4.0262954
  14  -4.2912250  -3.9033788   1.4201179
  14  -4.2912243   1.5430345  -4.0262953
  14  -4.2912240   1.5430346   1.4201180
  14   1.1551881  -3.9033779  -4.0262951
  14   1.1551884  -3.9033778   1.4201182
  14   1.1551891   1.5430355  -4.0262950
  14   1.1551894   1.5430356   1.4201183
  14   0.2751530  -2.8527146  -2.7453106
  14   0.2751533  -2.8527145   2.7011026
  14   0.2751540   2.5936988  -2.7453106
  14   0.2751543   2.5936989   2.7011027
  14  -4.2205068  -1.3173632  -1.4402795
  14  -4.2205065  -1.3173631   4.0061338
  14  -4.2205058   4.1290502  -1.4402794
  14  -4.2205055   4.1290503   4.0061338
  14   1.2259066  -1.3173622  -1.4402792
  14   1.2259069  -1.3173621   4.0061341
  14   1.2259076   4.1290512  -1.4402791
  14   1.2259079   4.1290513   4.0061341
  14  -2.5137562  -0.1701243  -2.7452972
  14  -2.5137559  -0.1701243   2.7011161
  14   2.9326572  -0.1701233  -2.7452969
  14   2.9326575  -0.1701233   2.7011164
  14  -1.5470340  -3.9907818  -1.2821175
  14  -1.5470337  -3.9907817   4.1642958
  14  -1.5470330   1.4556316  -1.2821174
  14  -1.5470327   1.4556317   4.1642959
  14   3.8993794  -3.9907808  -1.2821172
  14   3.8993797  -3.9907807   4.1642961
  14   3.8993804   1.4556326  -1.2821171
  14   3.8993807   1.4556327   4.1642962
  14  -2.5137567  -2.8527150  -0.0290288
  14  -2.5137557   2.5936983  -0.0290287
  14   2.9326567  -2.8527140  -0.0290285
  14   2.9326577   2.5936993  -0.0290284
  14  -1.5970757  -1.2094326  -4.0424494
  14  -1.5970754  -1.2094326   1.4039639
  14  -1.5970747   4.2369808  -4.0424493
  14  -1.5970743   4.2369808   1.4039639
  14   3.8493377  -1.2094316  -4.0424491
  14   3.8493380  -1.2094316   1.4039642
  14   3.8493387   4.2369818  -4.0424490
  14   3.8493390   4.2369818   1.4039642
ATOMS   11
  32   0.0229037  -0.0141642  -0.0024194
  14  -4.2591395  -3.9263247  -4.0318004
  14  -4.2591392  -3.9263246   1.4146128
  14  -4.2591385   1.5200887  -4.0318004
  14  -4.2591382   1.5200888   1.4146129
  14   1.1872738  -3.9263237  -4.0318001
  14   1.1872741  -3.9263236   1.4146131
  14   1.1872748   1.5200897  -4.0318001
  14   1.1872751   1.5200898   1.4146132
  14   0.2361113  -2.8343387  -2.7421742
  14   0.2361117  -2.8343386   2.7042391
  14   0.2361123   2.6120747  -2.7421741
  14   0.2361127   2.6120748   2.7042391
  14  -4.1984557  -1.3264376  -1.4319132
  14  -4.1984554  -1.3264376   4.0145001
  14  -4.1984547   4.1199758  -1.4319131
  14  -4.1984544   4.1199758   4.0145002
  14   1.2479577  -1.3264366  -1.4319129
  14   1.2479580  -1.3264366   4.0145004
  14   1.2479587   4.1199768  -1.4319128
  14   1.2479590   4.1199768   4.0145005
  14  -2.5434752  -0.1459855  -2.7421627
  14  -2.5434749  -0.1459854   2.7042506
  14   2.9029382  -0.1459845  -2.7421624
  14   2.9029385  -0.1459844   2.7042509
  14  -1.5235205  -4.0013263  -1.2961929
  14  -1.5235202  -4.0013262   4.1502204
  14  -1.5235195   1.4450871  -1.2961928
  14  -1.5235192   1.4450872   4.1502205
  14   3.9228929  -4.0013253  -1.2961926
  14   3.9228932  -4.0013252   4.1502207
  14   3.9228939   1.4450881  -1.2961925
  14   3.9228942   1.4450882   4.1502208
  14  -2.5434757  -2.8343391  -0.0249101
  14  -2.5434747   2.6120743  -0.0249100
  14   2.9029377  -2.8343381  -0.0249098
  14   2.9029387   2.6120753  -0.0249097
  14  -1.5664619  -1.2338216  -4.0426590
  14  -1.5664616  -1.2338216   1.4037542
  14  -1.5664609   4.2125918  -4.0426590
  14  -1.5664606   4.2125918   1.4037543
  14   3.8799514  -1.2338206  -4.0426587
  14   3.8799517  -1.2338206   1.4037545
  14   3.8799524   4.2125928  -4.0426587
  14   3.8799527   4.2125928   1.4037546
ATOMS   12
  32   0.0181154  -0.0112030  -0.0019137
  14  -4.2185731  -3.9553355  -4.0387606
  14  -4.2185728  -3.9553354   1.4076527
  14  -4.2185721   1.4910779  -4.0387605
  14  -4.2185718   1.4910780   1.4076527
  14   1.2278402  -3.9553345  -4.0387603
  14   1.2278406  -3.9553344   1.4076530
  14   1.2278412   1.4910789  -4.0387602
  14   1.2278416   1.4910790   1.4076531
  14   0.1867505  -2.8111057  -2.7382088
  14   0.1867508  -2.8111057   2.7082045
  14   0.1867515   2.6353077  -2.7382087
  14   0.1867518   2.6353077   2.7082045
  14  -4.1705762  -1.3379106  -1.4213355
  14  -4.1705759  -1.3379105   4.0250778
  14  -4.1705752   4.1085028  -1.4213354
  14  -4.1705749   4.1085029   4.0250779
  14   1.2758372  -1.3379096  -1.4213352
  14   1.2758375  -1.3379095   4.0250781
  14   1.2758382   4.1085038  -1.4213351
  14   1.2758385   4.1085039   4.0250782
  14  -2.5810493  -0.1154664  -2.7381997
  14  -2.5810490  -0.1154663   2.7082135
  14   2.8653641  -0.1154654  -2.7381994
  14   2.8653644  -0.1154653   2.7082139
  14  -1.4937921  -4.0146578  -1.3139886
  14  -1.4937918  -4.0146578   4.1324247
  14  -1.4937911   1.4317556  -1.3139885
  14  -1.4937908   1.4317556   4.1324248
  14   3.9526213  -4.0146568  -1.3139883
  14   3.9526216  -4.0146568   4.1324250
  14   3.9526223   1.4317566  -1.3139882
  14   3.9526226   1.4317566   4.1324251
  14  -2.5810498  -2.8111062  -0.0197027
  14  -2.5810488   2.6353072  -0.0197026
  14   2.8653636  -2.8111052  -0.0197024
  14   2.8653646   2.6353082  -0.0197023
  14  -1.5277566  -1.2646570  -4.0429241
  14  -1.5277563  -1.2646569   1.4034892
  14  -1.5277556   4.1817564  -4.0429240
  14  -1.5277553   4.1817565   1.4034892
  14   3.9186568  -1.2646560  -4.0429238
  14   3.9186571  -1.2646559   1.4034895
  14   3.9186578   4.1817574  -4.0429237
  14   3.9186581   4.1817575   1.4034896
ATOMS   13
  32   0.0125353  -0.0077521  -0.0013244
  14  -4.1712990  -3.9891432  -4.0468716
  14  -4.1712987  -3.9891432   1.3995417
  14  -4.1712980   1.4572702  -4.0468715
  14  -4.1712977   1.4572702   1.3995417
  14   1.2751144  -3.9891422  -4.0468713
  14   1.2751147  -3.9891422   1.3995420
  14   1.2751154   1.4572712  -4.0468712
  14   1.2751157   1.4572712   1.3995420
  14   0.1292277  -2.7840312  -2.7335877
  14   0.1292280  -2.7840311   2.7128256
  14   0.1292287   2.6623822  -2.7335876
  14   0.1292290   2.6623823   2.7128256
  14  -4.1380867  -1.3512806  -1.4090088
  14  -4.1380864  -1.3512805   4.0374045
  14  -4.1380857   4.0951328  -1.4090087
  14  -4.1380854   4.0951329   4.0374046
  14   1.3083267  -1.3512796  -1.4090085
  14   1.3083270  -1.3512795   4.0374048
  14   1.3083277   4.0951338  -1.4090084
  14   1.3083280   4.0951339   4.0374049
  14  -2.6248364  -0.0799009  -2.7335815
  14  -2.6248361  -0.0799009   2.7128318
  14   2.8215770  -0.0798999  -2.7335811
  14   2.8215773  -0.0798999   2.7128321
  14  -1.4591480  -4.0301938  -1.3347268
  14  -1.4591477  -4.0301937   4.1116864
  14  -1.4591470   1.4162196  -1.3347268
  14  -1.4591467   1.4162196   4.1116865
  14   3.9872654  -4.0301928  -1.3347265
  14   3.9872657  -4.0301927   4.1116867
  14   3.9872664   1.4162206  -1.3347264
  14   3.9872667   1.4162206   4.1116868
  14  -2.6248368  -2.7840316  -0.0136343
  14  -2.6248358   2.6623818  -0.0136343
  14   2.8215765  -2.7840306  -0.0136340
  14   2.8215775   2.6623828  -0.0136339
  14  -1.4826512  -1.3005910  -4.0432330
  14  -1.4826509  -1.3005909   1.4031803
  14  -1.4826502   4.1458224  -4.0432329
  14  -1.4826499   4.1458225   1.4031804
  14   3.9637621  -1.3005900  -4.0432327
  14   3.9637624  -1.3005899   1.4031806
  14   3.9637631   4.1458234  -4.0432326
  14   3.9637634   4.1458235   1.4031807
ATOMS   14
  32   0.0064073  -0.0039625  -0.0006773
  14  -4.1193832  -4.0262704  -4.0557790
  14  -4.1193829  -4.0262703   1.3906342
  14  -4.1193822   1.4201430  -4.0557790
  14  -4.1193819   1.4201430   1.3906343
  14   1.3270302  -4.0262694  -4.0557787
  14   1.3270305  -4.0262693   1.3906345
  14   1.3270312   1.4201440  -4.0557787
  14   1.3270315   1.4201440   1.3906346
  14   0.0660570  -2.7542983  -2.7285129
  14   0.0660573  -2.7542982   2.7179004
  14   0.0660580   2.6921151  -2.7285128
  14   0.0660583   2.6921152   2.7179005
  14  -4.1024072  -1.3659633  -1.3954718
  14  -4.1024069  -1.3659633   4.0509415
  14  -4.1024062   4.0804501  -1.3954717
  14  -4.1024059   4.0804501   4.0509416
  14   1.3440061  -1.3659623  -1.3954714
  14   1.3440065  -1.3659623   4.0509418
  14   1.3440071   4.0804511  -1.3954714
  14   1.3440075   4.0804511   4.0509419
  14  -2.6729227  -0.0408435  -2.7285097
  14  -2.6729224  -0.0408434   2.7179035
  14   2.7734907  -0.0408425  -2.7285094
  14   2.7734910  -0.0408424   2.7179038
  14  -1.4211023  -4.0472552  -1.3575013
  14  -1.4211020  -4.0472551   4.0889120
  14  -1.4211013   1.3991582  -1.3575012
  14  -1.4211010   1.3991583   4.0889121
  14   4.0253110  -4.0472542  -1.3575010
  14   4.0253113  -4.0472541   4.0889123
  14   4.0253120   1.3991592  -1.3575009
  14   4.0253123   1.3991593   4.0889124
  14  -2.6729232  -2.7542987  -0.0069701
  14  -2.6729222   2.6921146  -0.0069700
  14   2.7734902  -2.7542977  -0.0069698
  14   2.7734912   2.6921156  -0.0069697
  14  -1.4331172  -1.3400532  -4.0435722
  14  -1.4331169  -1.3400532   1.4028411
  14  -1.4331162   4.1063602  -4.0435721
  14  -1.4331159   4.1063602   1.4028412
  14   4.0132962  -1.3400522  -4.0435719
  14   4.0132965  -1.3400522   1.4028414
  14   4.0132972   4.1063612  -4.0435718
  14   4.0132975   4.1063612   1.4028415
ATOMS   15
  32  -0.0000007   0.0000004  -0.0000005
  14  -4.0650947  -4.0650944  -4.0650935
  14  -4.0650944  -4.0650943   1.3813197
  14  -4.0650937   1.3813190  -4.0650935
  14  -4.0650934   1.3813191   1.3813198
  14   1.3813187  -4.0650934  -4.0650932
  14   1.3813190  -4.0650933   1.3813200
  14   1.3813197   1.3813200  -4.0650932
  14   1.3813200   1.3813201   1.3813201
  14  -0.0000008  -2.7232066  -2.7232061
  14  -0.0000004  -2.7232065   2.7232072
  14   0.0000002   2.7232068  -2.7232060
  14   0.0000006   2.7232069   2.7232072
  14  -4.0650971  -1.3813171  -1.3813161
  14  -4.0650968  -1.3813170   4.0650972
  14  -4.0650961   4.0650963  -1.3813160
  14  -4.0650958   4.0650964   4.0650973
  14   1.3813162  -1.3813161  -1.3813157
  14   1.3813165  -1.3813160   4.0650975
  14   1.3813172   4.0650973  -1.3813157
  14   1.3813175   4.0650974   4.0650976
  14  -2.7232067  -0.0000010  -2.7232062
  14  -2.7232064  -0.0000009   2.7232070
  14   2.7232067   0.0000000  -2.7232059
  14   2.7232070   0.0000001   2.7232073
  14  -1.3813179  -4.0650963  -1.3813166
  14  -1.3813176  -4.0650962   4.0650967
  14  -1.3813169   1.3813171  -1.3813165
  14  -1.3813166   1.3813171   4.0650968
  14   4.0650954  -4.0650953  -1.3813163
  14   4.0650957  -4.0650952   4.0650970
  14   4.0650964   1.3813181  -1.3813162
  14   4.0650968   1.3813181   4.0650971
  14  -2.7232071  -2.7232070  -0.0000013
  14  -2.7232061   2.7232064  -0.0000013
  14   2.7232063  -2.7232060  -0.0000010
  14   2.7232073   2.7232074  -0.0000010
  14  -1.3813193  -1.3813190  -4.0439269
  14  -1.3813190  -1.3813189   1.4024864
  14  -1.3813183   4.0650944  -4.0439268
  14  -1.3813180   4.0650945   1.4024865
  14   4.0650940  -1.3813180  -4.0439266
  14   4.0650944  -1.3813179   1.4024867
  14   4.0650951   4.0650954  -4.0439265
  14   4.0650954   4.0650955   1.4024868
ATOMS   16
  32  -0.0064087   0.0039633   0.0006762
  14  -4.0108063  -4.1039184  -4.0744080
  14  -4.0108060  -4.1039183   1.3720052
  14  -4.0108053   1.3424950  -4.0744080
  14  -4.0108050   1.3424951   1.3720053
  14   1.4356071  -4.1039174  -4.0744077
  14   1.4356074  -4.1039173   1.3720055
  14   1.4356081   1.3424960  -4.0744076
  14   1.4356084   1.3424961   1.3720056
  14  -0.0660585  -2.6921148  -2.7178994
  14  -0.0660582  -2.6921147   2.7285139
  14  -0.0660575   2.7542986  -2.7178993
  14  -0.0660572   2.7542987   2.7285140
  14  -4.0277871  -1.3966709  -1.3671604
  14  -4.0277868  -1.3966708   4.0792529
  14  -4.0277861   4.0497425  -1.3671603
  14  -4.0277858   4.0497426   4.0792530
  14   1.4186263  -1.3966699  -1.3671601
  14   1.4186266  -1.3966698   4.0792532
  14   1.4186273   4.0497435  -1.3671600
  14   1.4186276   4.0497436   4.0792533
  14  -2.7734906   0.0408416  -2.7179027
  14  -2.7734903   0.0408416   2.7285105
  14   2.6729227   0.0408426  -2.7179024
  14   2.6729230   0.0408426   2.7285108
  14  -1.3415335  -4.0829375  -1.4051319
  14  -1.3415332  -4.0829374   4.0412814
  14  -1.3415325   1.3634759  -1.4051318
  14  -1.3415322   1.3634760   4.0412815
  14   4.1048798  -4.0829364  -1.4051316
  14   4.1048801  -4.0829364   4.0412817
  14   4.1048808   1.3634769  -1.4051315
  14   4.1048812   1.3634770   4.0412818
  14  -2.7734911  -2.6921153   0.0069674
  14  -2.7734901   2.7542981   0.0069675
  14   2.6729223  -2.6921143   0.0069678
  14   2.6729233   2.7542991   0.0069678
  14  -1.3295215  -1.4225847  -4.0442816
  14  -1.3295212  -1.4225846   1.4021317
  14  -1.3295205   4.0238287  -4.0442815
  14  -1.3295201   4.0238288   1.4021318
  14   4.1168919  -1.4225837  -4.0442813
  14   4.1168922  -1.4225836   1.4021320
  14   4.1168929   4.0238297  -4.0442812
  14   4.1168932   4.0238298   1.4021321
ATOMS   17
  32  -0.0125367   0.0077529   0.0013234
  14  -3.9588905  -4.1410456  -4.0833154
  14  -3.9588902  -4.1410455   1.3630978
  14  -3.9588895   1.3053678  -4.0833154
  14  -3.9588892   1.3053679   1.3630979