# --- AXSF block for ---- iev =    15  freq =     409.326883 cm-1
ANIMSTEPS   30
ATOMS    1
  32  -0.0000010   0.0000002   0.0000008
  14  -4.0953666  -4.0940635  -4.0050914
  14  -4.0953663  -4.0940634   1.4413219
  14  -4.0953656   1.3523499  -4.0050913
  14  -4.0953653   1.3523500   1.4413220
  14   1.3510468  -4.0940625  -4.0050911
  14   1.3510471  -4.0940624   1.4413222
  14   1.3510478   1.3523509  -4.0050910
  14   1.3510481   1.3523510   1.4413223
  14   0.0000119  -2.7232223  -2.7231472
  14   0.0000122  -2.7232222   2.7232661
  14   0.0000129   2.7231911  -2.7231471
  14   0.0000132   2.7231912   2.7232661
  14  -4.0953544  -1.3523480  -1.4413475
  14  -4.0953541  -1.3523480   4.0050658
  14  -4.0953534   4.0940654  -1.4413474
  14  -4.0953531   4.0940654   4.0050658
  14   1.3510590  -1.3523470  -1.4413472
  14   1.3510593  -1.3523470   4.0050661
  14   1.3510600   4.0940664  -1.4413471
  14   1.3510603   4.0940664   4.0050661
  14  -2.7232197   0.0000037  -2.7231475
  14  -2.7232194   0.0000037   2.7232658
  14   2.7231937   0.0000047  -2.7231472
  14   2.7231940   0.0000047   2.7232661
  14  -1.3510607  -4.0940508  -1.4413480
  14  -1.3510604  -4.0940507   4.0050652
  14  -1.3510597   1.3523626  -1.4413480
  14  -1.3510594   1.3523627   4.0050653
  14   4.0953527  -4.0940498  -1.4413477
  14   4.0953530  -4.0940497   4.0050655
  14   4.0953537   1.3523636  -1.4413476
  14   4.0953540   1.3523637   4.0050656
  14  -2.7232124  -2.7232097  -0.0000346
  14  -2.7232114   2.7232037  -0.0000345
  14   2.7232010  -2.7232087  -0.0000343
  14   2.7232020   2.7232047  -0.0000342
  14  -1.3510474  -1.3523499  -3.9839394
  14  -1.3510471  -1.3523498   1.4624739
  14  -1.3510464   4.0940635  -3.9839393
  14  -1.3510461   4.0940636   1.4624740
  14   4.0953659  -1.3523489  -3.9839390
  14   4.0953662  -1.3523488   1.4624742
  14   4.0953669   4.0940645  -3.9839390
  14   4.0953672   4.0940646   1.4624743
ATOMS    2
  32  -0.0000012   0.0000001   0.0000020
  14  -4.1243155  -4.1217665  -3.9477116
  14  -4.1243152  -4.1217664   1.4987017
  14  -4.1243145   1.3246469  -3.9477115
  14  -4.1243142   1.3246470   1.4987018
  14   1.3220979  -4.1217655  -3.9477113
  14   1.3220982  -4.1217654   1.4987020
  14   1.3220989   1.3246479  -3.9477112
  14   1.3220992   1.3246480   1.4987021
  14   0.0000241  -2.7232373  -2.7230908
  14   0.0000244  -2.7232372   2.7233224
  14   0.0000251   2.7231761  -2.7230908
  14   0.0000254   2.7231762   2.7233225
  14  -4.1242893  -1.3246450  -1.4987553
  14  -4.1242890  -1.3246450   3.9476580
  14  -4.1242883   4.1217684  -1.4987552
  14  -4.1242880   4.1217684   3.9476581
  14   1.3221241  -1.3246440  -1.4987550
  14   1.3221244  -1.3246440   3.9476583
  14   1.3221251   4.1217694  -1.4987549
  14   1.3221254   4.1217694   3.9476584
  14  -2.7232322   0.0000081  -2.7230913
  14  -2.7232319   0.0000082   2.7233220
  14   2.7231812   0.0000091  -2.7230910
  14   2.7231815   0.0000092   2.7233223
  14  -1.3221258  -4.1217398  -1.4987558
  14  -1.3221255  -4.1217397   3.9476575
  14  -1.3221248   1.3246736  -1.4987557
  14  -1.3221245   1.3246737   3.9476575
  14   4.1242876  -4.1217388  -1.4987555
  14   4.1242879  -4.1217387   3.9476578
  14   4.1242886   1.3246746  -1.4987554
  14   4.1242889   1.3246747   3.9476579
  14  -2.7232174  -2.7232123  -0.0000664
  14  -2.7232164   2.7232011  -0.0000663
  14   2.7231960  -2.7232113  -0.0000661
  14   2.7231970   2.7232021  -0.0000660
  14  -1.3220986  -1.3246469  -3.9265736
  14  -1.3220983  -1.3246468   1.5198397
  14  -1.3220976   4.1217665  -3.9265735
  14  -1.3220973   4.1217666   1.5198398
  14   4.1243148  -1.3246459  -3.9265733
  14   4.1243151  -1.3246458   1.5198400
  14   4.1243158   4.1217675  -3.9265732
  14   4.1243161   4.1217676   1.5198401
ATOMS    3
  32  -0.0000014   0.0000000   0.0000031
  14  -4.1506761  -4.1469926  -3.8954620
  14  -4.1506758  -4.1469926   1.5509513
  14  -4.1506751   1.2994208  -3.8954619
  14  -4.1506748   1.2994208   1.5509514
  14   1.2957373  -4.1469916  -3.8954616
  14   1.2957376  -4.1469916   1.5509516
  14   1.2957383   1.2994218  -3.8954616
  14   1.2957386   1.2994218   1.5509517
  14   0.0000351  -2.7232510  -2.7230395
  14   0.0000354  -2.7232509   2.7233737
  14   0.0000361   2.7231624  -2.7230395
  14   0.0000364   2.7231625   2.7233738
  14  -4.1506371  -1.2994189  -1.5510304
  14  -4.1506368  -1.2994188   3.8953829
  14  -4.1506361   4.1469945  -1.5510303
  14  -4.1506358   4.1469946   3.8953830
  14   1.2957762  -1.2994179  -1.5510301
  14   1.2957765  -1.2994178   3.8953832
  14   1.2957772   4.1469955  -1.5510300
  14   1.2957775   4.1469956   3.8953833
  14  -2.7232435   0.0000121  -2.7230401
  14  -2.7232432   0.0000122   2.7233732
  14   2.7231699   0.0000131  -2.7230398
  14   2.7231702   0.0000132   2.7233735
  14  -1.2957779  -4.1469532  -1.5510309
  14  -1.2957776  -4.1469531   3.8953823
  14  -1.2957769   1.2994602  -1.5510308
  14  -1.2957766   1.2994603   3.8953824
  14   4.1506354  -4.1469522  -1.5510306
  14   4.1506357  -4.1469521   3.8953827
  14   4.1506364   1.2994612  -1.5510305
  14   4.1506367   1.2994613   3.8953827
  14  -2.7232220  -2.7232146  -0.0000953
  14  -2.7232210   2.7231988  -0.0000952
  14   2.7231914  -2.7232136  -0.0000950
  14   2.7231924   2.7231998  -0.0000949
  14  -1.2957379  -1.2994207  -3.8743367
  14  -1.2957376  -1.2994207   1.5720766
  14  -1.2957369   4.1469927  -3.8743366
  14  -1.2957366   4.1469927   1.5720766
  14   4.1506754  -1.2994197  -3.8743364
  14   4.1506757  -1.2994197   1.5720769
  14   4.1506764   4.1469937  -3.8743363
  14   4.1506767   4.1469937   1.5720770
ATOMS    4
  32  -0.0000016  -0.0000002   0.0000041
  14  -4.1732964  -4.1686394  -3.8506260
  14  -4.1732961  -4.1686394   1.5957872
  14  -4.1732954   1.2777739  -3.8506260
  14  -4.1732951   1.2777740   1.5957873
  14   1.2731170  -4.1686384  -3.8506257
  14   1.2731173  -4.1686384   1.5957875
  14   1.2731180   1.2777750  -3.8506257
  14   1.2731183   1.2777750   1.5957876
  14   0.0000446  -2.7232627  -2.7229955
  14   0.0000449  -2.7232626   2.7234178
  14   0.0000456   2.7231507  -2.7229954
  14   0.0000459   2.7231508   2.7234178
  14  -4.1732465  -1.2777721  -1.5958882
  14  -4.1732462  -1.2777720   3.8505251
  14  -4.1732455   4.1686413  -1.5958881
  14  -4.1732452   4.1686414   3.8505252
  14   1.2731669  -1.2777711  -1.5958879
  14   1.2731672  -1.2777710   3.8505254
  14   1.2731679   4.1686423  -1.5958878
  14   1.2731682   4.1686424   3.8505255
  14  -2.7232533   0.0000155  -2.7229962
  14  -2.7232529   0.0000156   2.7234171
  14   2.7231601   0.0000165  -2.7229959
  14   2.7231604   0.0000166   2.7234174
  14  -1.2731686  -4.1685891  -1.5958887
  14  -1.2731683  -4.1685890   3.8505246
  14  -1.2731676   1.2778243  -1.5958886
  14  -1.2731673   1.2778244   3.8505246
  14   4.1732448  -4.1685880  -1.5958884
  14   4.1732451  -4.1685880   3.8505249
  14   4.1732458   1.2778253  -1.5958883
  14   4.1732461   1.2778254   3.8505249
  14  -2.7232259  -2.7232166  -0.0001202
  14  -2.7232249   2.7231968  -0.0001201
  14   2.7231875  -2.7232156  -0.0001199
  14   2.7231885   2.7231978  -0.0001198
  14  -1.2731176  -1.2777739  -3.8295117
  14  -1.2731173  -1.2777738   1.6169016
  14  -1.2731166   4.1686395  -3.8295116
  14  -1.2731163   4.1686395   1.6169016
  14   4.1732957  -1.2777729  -3.8295114
  14   4.1732961  -1.2777728   1.6169019
  14   4.1732967   4.1686405  -3.8295113
  14   4.1732971   4.1686405   1.6169019
ATOMS    5
  32  -0.0000017  -0.0000002   0.0000048
  14  -4.1911878  -4.1857608  -3.8151634
  14  -4.1911875  -4.1857608   1.6312499
  14  -4.1911868   1.2606525  -3.8151633
  14  -4.1911865   1.2606526   1.6312500
  14   1.2552256  -4.1857598  -3.8151631
  14   1.2552259  -4.1857598   1.6312502
  14   1.2552266   1.2606536  -3.8151630
  14   1.2552269   1.2606536   1.6312503
  14   0.0000521  -2.7232720  -2.7229607
  14   0.0000524  -2.7232719   2.7234526
  14   0.0000531   2.7231414  -2.7229606
  14   0.0000534   2.7231415   2.7234526
  14  -4.1911293  -1.2606507  -1.6313681
  14  -4.1911289  -1.2606506   3.8150451
  14  -4.1911282   4.1857627  -1.6313681
  14  -4.1911279   4.1857628   3.8150452
  14   1.2552841  -1.2606497  -1.6313678
  14   1.2552844  -1.2606496   3.8150454
  14   1.2552851   4.1857637  -1.6313678
  14   1.2552854   4.1857638   3.8150455
  14  -2.7232610   0.0000183  -2.7229614
  14  -2.7232607   0.0000183   2.7234518
  14   2.7231524   0.0000193  -2.7229611
  14   2.7231527   0.0000193   2.7234521
  14  -1.2552858  -4.1857018  -1.6313687
  14  -1.2552855  -4.1857017   3.8150446
  14  -1.2552848   1.2607116  -1.6313686
  14  -1.2552845   1.2607117   3.8150447
  14   4.1911275  -4.1857008  -1.6313684
  14   4.1911278  -4.1857007   3.8150449
  14   4.1911285   1.2607126  -1.6313683
  14   4.1911289   1.2607127   3.8150450
  14  -2.7232290  -2.7232182  -0.0001398
  14  -2.7232280   2.7231952  -0.0001397
  14   2.7231844  -2.7232172  -0.0001395
  14   2.7231854   2.7231962  -0.0001394
  14  -1.2552262  -1.2606525  -3.7940577
  14  -1.2552259  -1.2606524   1.6523556
  14  -1.2552252   4.1857609  -3.7940576
  14  -1.2552249   4.1857609   1.6523556
  14   4.1911871  -1.2606515  -3.7940574
  14   4.1911874  -1.2606514   1.6523559
  14   4.1911881   4.1857619  -3.7940573
  14   4.1911884   4.1857619   1.6523559
ATOMS    6
  32  -0.0000018  -0.0000003   0.0000053
  14  -4.2035683  -4.1976085  -3.7906239
  14  -4.2035680  -4.1976085   1.6557894
  14  -4.2035673   1.2488049  -3.7906238
  14  -4.2035670   1.2488049   1.6557895
  14   1.2428451  -4.1976075  -3.7906236
  14   1.2428454  -4.1976075   1.6557897
  14   1.2428461   1.2488059  -3.7906235
  14   1.2428464   1.2488059   1.6557898
  14   0.0000573  -2.7232784  -2.7229366
  14   0.0000576  -2.7232783   2.7234767
  14   0.0000583   2.7231350  -2.7229365
  14   0.0000586   2.7231351   2.7234767
  14  -4.2035038  -1.2488030  -1.6559196
  14  -4.2035035  -1.2488029   3.7904936
  14  -4.2035028   4.1976104  -1.6559195
  14  -4.2035025   4.1976105   3.7904937
  14   1.2429096  -1.2488020  -1.6559193
  14   1.2429099  -1.2488019   3.7904940
  14   1.2429106   4.1976114  -1.6559192
  14   1.2429109   4.1976115   3.7904940
  14  -2.7232663   0.0000201  -2.7229374
  14  -2.7232660   0.0000202   2.7234759
  14   2.7231471   0.0000211  -2.7229371
  14   2.7231474   0.0000212   2.7234762
  14  -1.2429113  -4.1975435  -1.6559202
  14  -1.2429110  -4.1975434   3.7904931
  14  -1.2429103   1.2488699  -1.6559201
  14  -1.2429100   1.2488700   3.7904932
  14   4.2035021  -4.1975425  -1.6559198
  14   4.2035024  -4.1975424   3.7904934
  14   4.2035031   1.2488709  -1.6559198
  14   4.2035034   1.2488710   3.7904935
  14  -2.7232311  -2.7232193  -0.0001534
  14  -2.7232301   2.7231941  -0.0001533
  14   2.7231822  -2.7232183  -0.0001531
  14   2.7231832   2.7231951  -0.0001530
  14  -1.2428457  -1.2488048  -3.7695242
  14  -1.2428454  -1.2488048   1.6768891
  14  -1.2428447   4.1976086  -3.7695241
  14  -1.2428444   4.1976086   1.6768891
  14   4.2035676  -1.2488038  -3.7695239
  14   4.2035679  -1.2488038   1.6768894
  14   4.2035686   4.1976096  -3.7695238
  14   4.2035689   4.1976096   1.6768895
ATOMS    7
  32  -0.0000019  -0.0000003   0.0000056
  14  -4.2098969  -4.2036647  -3.7780800
  14  -4.2098966  -4.2036646   1.6683333
  14  -4.2098959   1.2427487  -3.7780799
  14  -4.2098956   1.2427487   1.6683333
  14   1.2365165  -4.2036637  -3.7780797
  14   1.2365168  -4.2036636   1.6683336
  14   1.2365175   1.2427497  -3.7780796
  14   1.2365178   1.2427497   1.6683336
  14   0.0000600  -2.7232817  -2.7229243
  14   0.0000603  -2.7232816   2.7234890
  14   0.0000610   2.7231317  -2.7229242
  14   0.0000613   2.7231318   2.7234891
  14  -4.2098293  -1.2427468  -1.6684696
  14  -4.2098290  -1.2427467   3.7779437
  14  -4.2098283   4.2036666  -1.6684695
  14  -4.2098280   4.2036667   3.7779437
  14   1.2365841  -1.2427458  -1.6684693
  14   1.2365844  -1.2427457   3.7779440
  14   1.2365851   4.2036676  -1.6684692
  14   1.2365854   4.2036677   3.7779440
  14  -2.7232690   0.0000211  -2.7229251
  14  -2.7232687   0.0000212   2.7234882
  14   2.7231444   0.0000221  -2.7229248
  14   2.7231447   0.0000222   2.7234885
  14  -1.2365858  -4.2035966  -1.6684701
  14  -1.2365855  -4.2035966   3.7779431
  14  -1.2365848   1.2428168  -1.6684701
  14  -1.2365845   1.2428168   3.7779432
  14   4.2098276  -4.2035956  -1.6684698
  14   4.2098279  -4.2035956   3.7779434
  14   4.2098286   1.2428178  -1.6684698
  14   4.2098289   1.2428178   3.7779435
  14  -2.7232322  -2.7232199  -0.0001604
  14  -2.7232312   2.7231935  -0.0001603
  14   2.7231811  -2.7232189  -0.0001600
  14   2.7231821   2.7231945  -0.0001600
  14  -1.2365172  -1.2427486  -3.7569834
  14  -1.2365169  -1.2427486   1.6894299
  14  -1.2365162   4.2036648  -3.7569833
  14  -1.2365159   4.2036648   1.6894300
  14   4.2098962  -1.2427476  -3.7569831
  14   4.2098965  -1.2427476   1.6894302
  14   4.2098972   4.2036658  -3.7569830
  14   4.2098975   4.2036658   1.6894303
ATOMS    8
  32  -0.0000019  -0.0000003   0.0000056
  14  -4.2098969  -4.2036647  -3.7780800
  14  -4.2098966  -4.2036646   1.6683333
  14  -4.2098959   1.2427487  -3.7780799
  14  -4.2098956   1.2427487   1.6683333
  14   1.2365165  -4.2036637  -3.7780797
  14   1.2365168  -4.2036636   1.6683336
  14   1.2365175   1.2427497  -3.7780796
  14   1.2365178   1.2427497   1.6683336
  14   0.0000600  -2.7232817  -2.7229243
  14   0.0000603  -2.7232816   2.7234890
  14   0.0000610   2.7231317  -2.7229242
  14   0.0000613   2.7231318   2.7234891
  14  -4.2098293  -1.2427468  -1.6684696
  14  -4.2098290  -1.2427467   3.7779437
  14  -4.2098283   4.2036666  -1.6684695
  14  -4.2098280   4.2036667   3.7779437
  14   1.2365841  -1.2427458  -1.6684693
  14   1.2365844  -1.2427457   3.7779440
  14   1.2365851   4.2036676  -1.6684692
  14   1.2365854   4.2036677   3.7779440
  14  -2.7232690   0.0000211  -2.7229251
  14  -2.7232687   0.0000212   2.7234882
  14   2.7231444   0.0000221  -2.7229248
  14   2.7231447   0.0000222   2.7234885
  14  -1.2365858  -4.2035966  -1.6684701
  14  -1.2365855  -4.2035966   3.7779431
  14  -1.2365848   1.2428168  -1.6684701
  14  -1.2365845   1.2428168   3.7779432
  14   4.2098276  -4.2035956  -1.6684698
  14   4.2098279  -4.2035956   3.7779434
  14   4.2098286   1.2428178  -1.6684698
  14   4.2098289   1.2428178   3.7779435
  14  -2.7232322  -2.7232199  -0.0001604
  14  -2.7232312   2.7231935  -0.0001603
  14   2.7231811  -2.7232189  -0.0001600
  14   2.7231821   2.7231945  -0.0001600
  14  -1.2365172  -1.2427486  -3.7569834
  14  -1.2365169  -1.2427486   1.6894299
  14  -1.2365162   4.2036648  -3.7569833
  14  -1.2365159   4.2036648   1.6894300
  14   4.2098962  -1.2427476  -3.7569831
  14   4.2098965  -1.2427476   1.6894302
  14   4.2098972   4.2036658  -3.7569830
  14   4.2098975   4.2036658   1.6894303
ATOMS    9
  32  -0.0000018  -0.0000003   0.0000053
  14  -4.2035683  -4.1976085  -3.7906239
  14  -4.2035680  -4.1976085   1.6557894
  14  -4.2035673   1.2488049  -3.7906238
  14  -4.2035670   1.2488049   1.6557895
  14   1.2428451  -4.1976075  -3.7906236
  14   1.2428454  -4.1976075   1.6557897
  14   1.2428461   1.2488059  -3.7906235
  14   1.2428464   1.2488059   1.6557898
  14   0.0000573  -2.7232784  -2.7229366
  14   0.0000576  -2.7232783   2.7234767
  14   0.0000583   2.7231350  -2.7229365
  14   0.0000586   2.7231351   2.7234767
  14  -4.2035038  -1.2488030  -1.6559196
  14  -4.2035035  -1.2488029   3.7904936
  14  -4.2035028   4.1976104  -1.6559195
  14  -4.2035025   4.1976105   3.7904937
  14   1.2429096  -1.2488020  -1.6559193
  14   1.2429099  -1.2488019   3.7904940
  14   1.2429106   4.1976114  -1.6559192
  14   1.2429109   4.1976115   3.7904940
  14  -2.7232663   0.0000201  -2.7229374
  14  -2.7232660   0.0000202   2.7234759
  14   2.7231471   0.0000211  -2.7229371
  14   2.7231474   0.0000212   2.7234762
  14  -1.2429113  -4.1975435  -1.6559202
  14  -1.2429110  -4.1975434   3.7904931
  14  -1.2429103   1.2488699  -1.6559201
  14  -1.2429100   1.2488700   3.7904932
  14   4.2035021  -4.1975425  -1.6559198
  14   4.2035024  -4.1975424   3.7904934
  14   4.2035031   1.2488709  -1.6559198
  14   4.2035034   1.2488710   3.7904935
  14  -2.7232311  -2.7232193  -0.0001534
  14  -2.7232301   2.7231941  -0.0001533
  14   2.7231822  -2.7232183  -0.0001531
  14   2.7231832   2.7231951  -0.0001530
  14  -1.2428457  -1.2488048  -3.7695242
  14  -1.2428454  -1.2488048   1.6768891
  14  -1.2428447   4.1976086  -3.7695241
  14  -1.2428444   4.1976086   1.6768891
  14   4.2035676  -1.2488038  -3.7695239
  14   4.2035679  -1.2488038   1.6768894
  14   4.2035686   4.1976096  -3.7695238
  14   4.2035689   4.1976096   1.6768895
ATOMS   10
  32  -0.0000017  -0.0000002   0.0000048
  14  -4.1911878  -4.1857608  -3.8151634
  14  -4.1911875  -4.1857608   1.6312499
  14  -4.1911868   1.2606525  -3.8151633
  14  -4.1911865   1.2606526   1.6312500
  14   1.2552256  -4.1857598  -3.8151631
  14   1.2552259  -4.1857598   1.6312502
  14   1.2552266   1.2606536  -3.8151630
  14   1.2552269   1.2606536   1.6312503
  14   0.0000521  -2.7232720  -2.7229607
  14   0.0000524  -2.7232719   2.7234526
  14   0.0000531   2.7231414  -2.7229606
  14   0.0000534   2.7231415   2.7234526
  14  -4.1911293  -1.2606507  -1.6313681
  14  -4.1911289  -1.2606506   3.8150451
  14  -4.1911282   4.1857627  -1.6313681
  14  -4.1911279   4.1857628   3.8150452
  14   1.2552841  -1.2606497  -1.6313678
  14   1.2552844  -1.2606496   3.8150454
  14   1.2552851   4.1857637  -1.6313678
  14   1.2552854   4.1857638   3.8150455
  14  -2.7232610   0.0000183  -2.7229614
  14  -2.7232607   0.0000183   2.7234518
  14   2.7231524   0.0000193  -2.7229611
  14   2.7231527   0.0000193   2.7234521
  14  -1.2552858  -4.1857018  -1.6313687
  14  -1.2552855  -4.1857017   3.8150446
  14  -1.2552848   1.2607116  -1.6313686
  14  -1.2552845   1.2607117   3.8150447
  14   4.1911275  -4.1857008  -1.6313684
  14   4.1911278  -4.1857007   3.8150449
  14   4.1911285   1.2607126  -1.6313683
  14   4.1911289   1.2607127   3.8150450
  14  -2.7232290  -2.7232182  -0.0001398
  14  -2.7232280   2.7231952  -0.0001397
  14   2.7231844  -2.7232172  -0.0001395
  14   2.7231854   2.7231962  -0.0001394
  14  -1.2552262  -1.2606525  -3.7940577
  14  -1.2552259  -1.2606524   1.6523556
  14  -1.2552252   4.1857609  -3.7940576
  14  -1.2552249   4.1857609   1.6523556
  14   4.1911871  -1.2606515  -3.7940574
  14   4.1911874  -1.2606514   1.6523559
  14   4.1911881   4.1857619  -3.7940573
  14   4.1911884   4.1857619   1.6523559
ATOMS   11
  32  -0.0000016  -0.0000002   0.0000041
  14  -4.1732964  -4.1686394  -3.8506260
  14  -4.1732961  -4.1686394   1.5957872
  14  -4.1732954   1.2777739  -3.8506260
  14  -4.1732951   1.2777740   1.5957873
  14   1.2731170  -4.1686384  -3.8506257
  14   1.2731173  -4.1686384   1.5957875
  14   1.2731180   1.2777750  -3.8506257
  14   1.2731183   1.2777750   1.5957876
  14   0.0000446  -2.7232627  -2.7229955
  14   0.0000449  -2.7232626   2.7234178
  14   0.0000456   2.7231507  -2.7229954
  14   0.0000459   2.7231508   2.7234178
  14  -4.1732465  -1.2777721  -1.5958882
  14  -4.1732462  -1.2777720   3.8505251
  14  -4.1732455   4.1686413  -1.5958881
  14  -4.1732452   4.1686414   3.8505252
  14   1.2731669  -1.2777711  -1.5958879
  14   1.2731672  -1.2777710   3.8505254
  14   1.2731679   4.1686423  -1.5958878
  14   1.2731682   4.1686424   3.8505255
  14  -2.7232533   0.0000155  -2.7229962
  14  -2.7232529   0.0000156   2.7234171
  14   2.7231601   0.0000165  -2.7229959
  14   2.7231604   0.0000166   2.7234174
  14  -1.2731686  -4.1685891  -1.5958887
  14  -1.2731683  -4.1685890   3.8505246
  14  -1.2731676   1.2778243  -1.5958886
  14  -1.2731673   1.2778244   3.8505246
  14   4.1732448  -4.1685880  -1.5958884
  14   4.1732451  -4.1685880   3.8505249
  14   4.1732458   1.2778253  -1.5958883
  14   4.1732461   1.2778254   3.8505249
  14  -2.7232259  -2.7232166  -0.0001202
  14  -2.7232249   2.7231968  -0.0001201
  14   2.7231875  -2.7232156  -0.0001199
  14   2.7231885   2.7231978  -0.0001198
  14  -1.2731176  -1.2777739  -3.8295117
  14  -1.2731173  -1.2777738   1.6169016
  14  -1.2731166   4.1686395  -3.8295116
  14  -1.2731163   4.1686395   1.6169016
  14   4.1732957  -1.2777729  -3.8295114
  14   4.1732961  -1.2777728   1.6169019
  14   4.1732967   4.1686405  -3.8295113
  14   4.1732971   4.1686405   1.6169019
ATOMS   12
  32  -0.0000014   0.0000000   0.0000031
  14  -4.1506761  -4.1469926  -3.8954620
  14  -4.1506758  -4.1469926   1.5509513
  14  -4.1506751   1.2994208  -3.8954619
  14  -4.1506748   1.2994208   1.5509514
  14   1.2957373  -4.1469916  -3.8954616
  14   1.2957376  -4.1469916   1.5509516
  14   1.2957383   1.2994218  -3.8954616
  14   1.2957386   1.2994218   1.5509517
  14   0.0000351  -2.7232510  -2.7230395
  14   0.0000354  -2.7232509   2.7233737
  14   0.0000361   2.7231624  -2.7230395
  14   0.0000364   2.7231625   2.7233738
  14  -4.1506371  -1.2994189  -1.5510304
  14  -4.1506368  -1.2994188   3.8953829
  14  -4.1506361   4.1469945  -1.5510303
  14  -4.1506358   4.1469946   3.8953830
  14   1.2957762  -1.2994179  -1.5510301
  14   1.2957765  -1.2994178   3.8953832
  14   1.2957772   4.1469955  -1.5510300
  14   1.2957775   4.1469956   3.8953833
  14  -2.7232435   0.0000121  -2.7230401
  14  -2.7232432   0.0000122   2.7233732
  14   2.7231699   0.0000131  -2.7230398
  14   2.7231702   0.0000132   2.7233735
  14  -1.2957779  -4.1469532  -1.5510309
  14  -1.2957776  -4.1469531   3.8953823
  14  -1.2957769   1.2994602  -1.5510308
  14  -1.2957766   1.2994603   3.8953824
  14   4.1506354  -4.1469522  -1.5510306
  14   4.1506357  -4.1469521   3.8953827
  14   4.1506364   1.2994612  -1.5510305
  14   4.1506367   1.2994613   3.8953827
  14  -2.7232220  -2.7232146  -0.0000953
  14  -2.7232210   2.7231988  -0.0000952
  14   2.7231914  -2.7232136  -0.0000950
  14   2.7231924   2.7231998  -0.0000949
  14  -1.2957379  -1.2994207  -3.8743367
  14  -1.2957376  -1.2994207   1.5720766
  14  -1.2957369   4.1469927  -3.8743366
  14  -1.2957366   4.1469927   1.5720766
  14   4.1506754  -1.2994197  -3.8743364
  14   4.1506757  -1.2994197   1.5720769
  14   4.1506764   4.1469937  -3.8743363
  14   4.1506767   4.1469937   1.5720770
ATOMS   13
  32  -0.0000012   0.0000001   0.0000020
  14  -4.1243155  -4.1217665  -3.9477116
  14  -4.1243152  -4.1217664   1.4987017
  14  -4.1243145   1.3246469  -3.9477115
  14  -4.1243142   1.3246470   1.4987018
  14   1.3220979  -4.1217655  -3.9477113
  14   1.3220982  -4.1217654   1.4987020
  14   1.3220989   1.3246479  -3.9477112
  14   1.3220992   1.3246480   1.4987021
  14   0.0000241  -2.7232373  -2.7230908
  14   0.0000244  -2.7232372   2.7233224
  14   0.0000251   2.7231761  -2.7230908
  14   0.0000254   2.7231762   2.7233225
  14  -4.1242893  -1.3246450  -1.4987553
  14  -4.1242890  -1.3246450   3.9476580
  14  -4.1242883   4.1217684  -1.4987552
  14  -4.1242880   4.1217684   3.9476581
  14   1.3221241  -1.3246440  -1.4987550
  14   1.3221244  -1.3246440   3.9476583
  14   1.3221251   4.1217694  -1.4987549
  14   1.3221254   4.1217694   3.9476584
  14  -2.7232322   0.0000081  -2.7230913
  14  -2.7232319   0.0000082   2.7233220
  14   2.7231812   0.0000091  -2.7230910
  14   2.7231815   0.0000092   2.7233223
  14  -1.3221258  -4.1217398  -1.4987558
  14  -1.3221255  -4.1217397   3.9476575
  14  -1.3221248   1.3246736  -1.4987557
  14  -1.3221245   1.3246737   3.9476575
  14   4.1242876  -4.1217388  -1.4987555
  14   4.1242879  -4.1217387   3.9476578
  14   4.1242886   1.3246746  -1.4987554
  14   4.1242889   1.3246747   3.9476579
  14  -2.7232174  -2.7232123  -0.0000664
  14  -2.7232164   2.7232011  -0.0000663
  14   2.7231960  -2.7232113  -0.0000661
  14   2.7231970   2.7232021  -0.0000660
  14  -1.3220986  -1.3246469  -3.9265736
  14  -1.3220983  -1.3246468   1.5198397
  14  -1.3220976   4.1217665  -3.9265735
  14  -1.3220973   4.1217666   1.5198398
  14   4.1243148  -1.3246459  -3.9265733
  14   4.1243151  -1.3246458   1.5198400
  14   4.1243158   4.1217675  -3.9265732
  14   4.1243161   4.1217676   1.5198401
ATOMS   14
  32  -0.0000010   0.0000002   0.0000008
  14  -4.0953666  -4.0940635  -4.0050914
  14  -4.0953663  -4.0940634   1.4413219
  14  -4.0953656   1.3523499  -4.0050913
  14  -4.0953653   1.3523500   1.4413220
  14   1.3510468  -4.0940625  -4.0050911
  14   1.3510471  -4.0940624   1.4413222
  14   1.3510478   1.3523509  -4.0050910
  14   1.3510481   1.3523510   1.4413223
  14   0.0000119  -2.7232223  -2.7231472
  14   0.0000122  -2.7232222   2.7232661
  14   0.0000129   2.7231911  -2.7231471
  14   0.0000132   2.7231912   2.7232661
  14  -4.0953544  -1.3523480  -1.4413475
  14  -4.0953541  -1.3523480   4.0050658
  14  -4.0953534   4.0940654  -1.4413474
  14  -4.0953531   4.0940654   4.0050658
  14   1.3510590  -1.3523470  -1.4413472
  14   1.3510593  -1.3523470   4.0050661
  14   1.3510600   4.0940664  -1.4413471
  14   1.3510603   4.0940664   4.0050661
  14  -2.7232197   0.0000037  -2.7231475
  14  -2.7232194   0.0000037   2.7232658
  14   2.7231937   0.0000047  -2.7231472
  14   2.7231940   0.0000047   2.7232661
  14  -1.3510607  -4.0940508  -1.4413480
  14  -1.3510604  -4.0940507   4.0050652
  14  -1.3510597   1.3523626  -1.4413480
  14  -1.3510594   1.3523627   4.0050653
  14   4.0953527  -4.0940498  -1.4413477
  14   4.0953530  -4.0940497   4.0050655
  14   4.0953537   1.3523636  -1.4413476
  14   4.0953540   1.3523637   4.0050656
  14  -2.7232124  -2.7232097  -0.0000346
  14  -2.7232114   2.7232037  -0.0000345
  14   2.7232010  -2.7232087  -0.0000343
  14   2.7232020   2.7232047  -0.0000342
  14  -1.3510474  -1.3523499  -3.9839394
  14  -1.3510471  -1.3523498   1.4624739
  14  -1.3510464   4.0940635  -3.9839393
  14  -1.3510461   4.0940636   1.4624740
  14   4.0953659  -1.3523489  -3.9839390
  14   4.0953662  -1.3523488   1.4624742
  14   4.0953669   4.0940645  -3.9839390
  14   4.0953672   4.0940646   1.4624743
ATOMS   15
  32  -0.0000007   0.0000004  -0.0000005
  14  -4.0650947  -4.0650944  -4.0650935
  14  -4.0650944  -4.0650943   1.3813197
  14  -4.0650937   1.3813190  -4.0650935
  14  -4.0650934   1.3813191   1.3813198
  14   1.3813187  -4.0650934  -4.0650932
  14   1.3813190  -4.0650933   1.3813200
  14   1.3813197   1.3813200  -4.0650932
  14   1.3813200   1.3813201   1.3813201
  14  -0.0000008  -2.7232066  -2.7232061
  14  -0.0000004  -2.7232065   2.7232072
  14   0.0000002   2.7232068  -2.7232060
  14   0.0000006   2.7232069   2.7232072
  14  -4.0650971  -1.3813171  -1.3813161
  14  -4.0650968  -1.3813170   4.0650972
  14  -4.0650961   4.0650963  -1.3813160
  14  -4.0650958   4.0650964   4.0650973
  14   1.3813162  -1.3813161  -1.3813157
  14   1.3813165  -1.3813160   4.0650975
  14   1.3813172   4.0650973  -1.3813157
  14   1.3813175   4.0650974   4.0650976
  14  -2.7232067  -0.0000009  -2.7232062
  14  -2.7232064  -0.0000009   2.7232070
  14   2.7232067   0.0000001  -2.7232059
  14   2.7232070   0.0000001   2.7232073
  14  -1.3813179  -4.0650963  -1.3813166
  14  -1.3813176  -4.0650962   4.0650967
  14  -1.3813169   1.3813171  -1.3813165
  14  -1.3813166   1.3813171   4.0650968
  14   4.0650954  -4.0650953  -1.3813163
  14   4.0650957  -4.0650952   4.0650970
  14   4.0650964   1.3813181  -1.3813162
  14   4.0650968   1.3813181   4.0650971
  14  -2.7232071  -2.7232070  -0.0000013
  14  -2.7232061   2.7232064  -0.0000013
  14   2.7232063  -2.7232060  -0.0000010
  14   2.7232073   2.7232074  -0.0000010
  14  -1.3813193  -1.3813190  -4.0439269
  14  -1.3813190  -1.3813189   1.4024864
  14  -1.3813183   4.0650944  -4.0439268
  14  -1.3813180   4.0650945   1.4024865
  14   4.0650940  -1.3813180  -4.0439266
  14   4.0650944  -1.3813179   1.4024867
  14   4.0650951   4.0650954  -4.0439265
  14   4.0650954   4.0650955   1.4024868
ATOMS   16
  32  -0.0000005   0.0000006  -0.0000018
  14  -4.0348228  -4.0361253  -4.1250957
  14  -4.0348225  -4.0361252   1.3213176
  14  -4.0348218   1.4102881  -4.1250956
  14  -4.0348215   1.4102882   1.3213176
  14   1.4115905  -4.0361243  -4.1250954
  14   1.4115908  -4.0361242   1.3213179
  14   1.4115915   1.4102891  -4.1250953
  14   1.4115918   1.4102892   1.3213180
  14  -0.0000135  -2.7231908  -2.7232650
  14  -0.0000131  -2.7231908   2.7231482
  14  -0.0000125   2.7232225  -2.7232650
  14  -0.0000121   2.7232226   2.7231483
  14  -4.0348399  -1.4102862  -1.3212846
  14  -4.0348396  -1.4102861   4.1251287
  14  -4.0348389   4.0361272  -1.3212845
  14  -4.0348386   4.0361273   4.1251287
  14   1.4115735  -1.4102852  -1.3212843
  14   1.4115738  -1.4102851   4.1251290
  14   1.4115745   4.0361282  -1.3212842
  14   1.4115748   4.0361283   4.1251290
  14  -2.7231936  -0.0000056  -2.7232650
  14  -2.7231933  -0.0000055   2.7231483
  14   2.7232197  -0.0000046  -2.7232647
  14   2.7232201  -0.0000045   2.7231486
  14  -1.4115752  -4.0361419  -1.3212851
  14  -1.4115749  -4.0361418   4.1251281
  14  -1.4115742   1.4102715  -1.3212851
  14  -1.4115739   1.4102716   4.1251282
  14   4.0348382  -4.0361409  -1.3212848
  14   4.0348385  -4.0361408   4.1251284
  14   4.0348392   1.4102725  -1.3212848
  14   4.0348395   1.4102726   4.1251285
  14  -2.7232019  -2.7232043   0.0000319
  14  -2.7232009   2.7232091   0.0000320
  14   2.7232115  -2.7232033   0.0000322
  14   2.7232125   2.7232101   0.0000323
  14  -1.4115912  -1.4102880  -4.1039144
  14  -1.4115909  -1.4102880   1.3424989
  14  -1.4115902   4.0361253  -4.1039143
  14  -1.4115899   4.0361254   1.3424989
  14   4.0348222  -1.4102870  -4.1039141
  14   4.0348225  -1.4102870   1.3424992
  14   4.0348232   4.0361263  -4.1039140
  14   4.0348235   4.0361264   1.3424992
ATOMS   17
  32  -0.0000003   0.0000007  -0.0000030
  14  -4.0058740  -4.0084223  -4.1824755
  14  -4.0058737  -4.0084222   1.2639378
  14  -4.0058730   1.4379911  -4.1824754
  14  -4.0058727   1.4379912   1.2639379