# --- AXSF block for ---- iev =     9  freq =     133.258740 cm-1
ANIMSTEPS   30
ATOMS    1
  32   0.0001397   0.0001392  -0.0000336
  14  -4.0883814  -4.0930792  -4.0136616
  14  -4.0883811  -4.0930791   1.4327517
  14  -4.0883804   1.3533342  -4.0136615
  14  -4.0883801   1.3533342   1.4327518
  14   1.3580320  -4.0930782  -4.0136613
  14   1.3580323  -4.0930781   1.4327520
  14   1.3580330   1.3533352  -4.0136612
  14   1.3580333   1.3533352   1.4327521
  14  -0.0001662  -2.6724603  -2.7270041
  14  -0.0001659  -2.6724603   2.7194092
  14  -0.0001652   2.7739530  -2.7270040
  14  -0.0001649   2.7739531   2.7194093
  14  -4.0418835  -1.3571988  -1.3822398
  14  -4.0418832  -1.3571987   4.0641735
  14  -4.0418825   4.0892146  -1.3822397
  14  -4.0418822   4.0892147   4.0641736
  14   1.4045299  -1.3571978  -1.3822395
  14   1.4045302  -1.3571977   4.0641738
  14   1.4045309   4.0892156  -1.3822394
  14   1.4045312   4.0892157   4.0641739
  14  -2.6705929  -0.0001639  -2.7193937
  14  -2.6705926  -0.0001638   2.7270196
  14   2.7758205  -0.0001629  -2.7193934
  14   2.7758208  -0.0001628   2.7270199
  14  -1.3543545  -4.0371845  -1.3803825
  14  -1.3543541  -4.0371844   4.0660308
  14  -1.3543535   1.4092289  -1.3803824
  14  -1.3543531   1.4092290   4.0660309
  14   4.0920589  -4.0371834  -1.3803822
  14   4.0920592  -4.0371834   4.0660311
  14   4.0920599   1.4092299  -1.3803821
  14   4.0920602   1.4092300   4.0660312
  14  -2.7758939  -2.7740262   0.0000373
  14  -2.7758929   2.6723872   0.0000373
  14   2.6705195  -2.7740252   0.0000376
  14   2.6705205   2.6723882   0.0000377
  14  -1.4083412  -1.4054956  -4.0953443
  14  -1.4083409  -1.4054956   1.3510690
  14  -1.4083402   4.0409178  -4.0953442
  14  -1.4083399   4.0409178   1.3510691
  14   4.0380722  -1.4054946  -4.0953439
  14   4.0380725  -1.4054946   1.3510693
  14   4.0380732   4.0409188  -4.0953439
  14   4.0380735   4.0409188   1.3510694
ATOMS    2
  32   0.0002739   0.0002720  -0.0000653
  14  -4.1106503  -4.1198410  -3.9644774
  14  -4.1106500  -4.1198409   1.4819358
  14  -4.1106493   1.3265724  -3.9644774
  14  -4.1106490   1.3265725   1.4819359
  14   1.3357631  -4.1198400  -3.9644771
  14   1.3357634  -4.1198399   1.4819361
  14   1.3357641   1.3265734  -3.9644770
  14   1.3357644   1.3265735   1.4819362
  14  -0.0003244  -2.6239320  -2.7306360
  14  -0.0003241  -2.6239319   2.7157773
  14  -0.0003234   2.8224814  -2.7306359
  14  -0.0003231   2.8224815   2.7157773
  14  -4.0196843  -1.3341346  -1.3831232
  14  -4.0196840  -1.3341345   4.0632901
  14  -4.0196833   4.1122788  -1.3831231
  14  -4.0196830   4.1122789   4.0632902
  14   1.4267291  -1.3341336  -1.3831228
  14   1.4267294  -1.3341335   4.0632904
  14   1.4267301   4.1122798  -1.3831228
  14   1.4267304   4.1122799   4.0632905
  14  -2.6202785  -0.0003198  -2.7157478
  14  -2.6202782  -0.0003197   2.7306655
  14   2.8261348  -0.0003188  -2.7157475
  14   2.8261352  -0.0003187   2.7306658
  14  -1.3285694  -4.0104925  -1.3794892
  14  -1.3285691  -4.0104924   4.0669240
  14  -1.3285684   1.4359209  -1.3794892
  14  -1.3285681   1.4359210   4.0669241
  14   4.1178440  -4.0104915  -1.3794889
  14   4.1178443  -4.0104914   4.0669243
  14   4.1178450   1.4359219  -1.3794888
  14   4.1178453   1.4359220   4.0669244
  14  -2.8262780  -2.8226243   0.0000742
  14  -2.8262770   2.6237891   0.0000743
  14   2.6201354  -2.8226233   0.0000745
  14   2.6201364   2.6237901   0.0000746
  14  -1.4341820  -1.4286157  -4.1445144
  14  -1.4341817  -1.4286156   1.3018988
  14  -1.4341810   4.0177977  -4.1445144
  14  -1.4341807   4.0177978   1.3018989
  14   4.0122313  -1.4286147  -4.1445141
  14   4.0122317  -1.4286146   1.3018991
  14   4.0122323   4.0177987  -4.1445141
  14   4.0122327   4.0177988   1.3018992
ATOMS    3
  32   0.0003962   0.0003929  -0.0000941
  14  -4.1309282  -4.1442100  -3.9196907
  14  -4.1309279  -4.1442100   1.5267226
  14  -4.1309272   1.3022033  -3.9196906
  14  -4.1309269   1.3022034   1.5267227
  14   1.3154852  -4.1442090  -3.9196904
  14   1.3154855  -4.1442090   1.5267229
  14   1.3154862   1.3022044  -3.9196903
  14   1.3154865   1.3022044   1.5267230
  14  -0.0004685  -2.5797424  -2.7339432
  14  -0.0004682  -2.5797423   2.7124700
  14  -0.0004675   2.8666710  -2.7339432
  14  -0.0004672   2.8666710   2.7124701
  14  -3.9994699  -1.3131325  -1.3839275
  14  -3.9994696  -1.3131324   4.0624857
  14  -3.9994689   4.1332809  -1.3839275
  14  -3.9994686   4.1332810   4.0624858
  14   1.4469434  -1.3131315  -1.3839272
  14   1.4469438  -1.3131314   4.0624860
  14   1.4469444   4.1332819  -1.3839271
  14   1.4469448   4.1332820   4.0624861
  14  -2.5744627  -0.0004617  -2.7124279
  14  -2.5744623  -0.0004616   2.7339854
  14   2.8719507  -0.0004607  -2.7124276
  14   2.8719510  -0.0004606   2.7339857
  14  -1.3050897  -3.9861869  -1.3786758
  14  -1.3050894  -3.9861868   4.0677374
  14  -1.3050887   1.4602265  -1.3786757
  14  -1.3050884   1.4602265   4.0677375
  14   4.1413237  -3.9861859  -1.3786755
  14   4.1413240  -3.9861858   4.0677378
  14   4.1413247   1.4602275  -1.3786754
  14   4.1413250   1.4602275   4.0677378
  14  -2.8721574  -2.8668774   0.0001078
  14  -2.8721564   2.5795360   0.0001079
  14   2.5742560  -2.8668764   0.0001081
  14   2.5742570   2.5795370   0.0001082
  14  -1.4577125  -1.4496686  -4.1892885
  14  -1.4577122  -1.4496685   1.2571248
  14  -1.4577115   3.9967448  -4.1892884
  14  -1.4577112   3.9967449   1.2571249
  14   3.9887008  -1.4496676  -4.1892882
  14   3.9887012  -1.4496675   1.2571251
  14   3.9887018   3.9967458  -4.1892881
  14   3.9887022   3.9967459   1.2571252
ATOMS    4
  32   0.0005011   0.0004967  -0.0001189
  14  -4.1483289  -4.1651214  -3.8812588
  14  -4.1483285  -4.1651213   1.5651545
  14  -4.1483279   1.2812920  -3.8812587
  14  -4.1483275   1.2812921   1.5651546
  14   1.2980845  -4.1651204  -3.8812584
  14   1.2980848  -4.1651203   1.5651548
  14   1.2980855   1.2812930  -3.8812584
  14   1.2980858   1.2812931   1.5651549
  14  -0.0005922  -2.5418229  -2.7367812
  14  -0.0005919  -2.5418228   2.7096321
  14  -0.0005912   2.9045905  -2.7367811
  14  -0.0005909   2.9045906   2.7096321
  14  -3.9821238  -1.2951103  -1.3846178
  14  -3.9821235  -1.2951103   4.0617955
  14  -3.9821228   4.1513031  -1.3846177
  14  -3.9821225   4.1513031   4.0617956
  14   1.4642896  -1.2951093  -1.3846175
  14   1.4642899  -1.2951093   4.0617958
  14   1.4642906   4.1513041  -1.3846174
  14   1.4642909   4.1513041   4.0617959
  14  -2.5351476  -0.0005835  -2.7095790
  14  -2.5351473  -0.0005834   2.7368343
  14   2.9112658  -0.0005825  -2.7095787
  14   2.9112661  -0.0005824   2.7368346
  14  -1.2849416  -3.9653301  -1.3779778
  14  -1.2849413  -3.9653300   4.0684354
  14  -1.2849406   1.4810833  -1.3779778
  14  -1.2849403   1.4810834   4.0684355
  14   4.1614718  -3.9653291  -1.3779775
  14   4.1614721  -3.9653290   4.0684357
  14   4.1614728   1.4810843  -1.3779774
  14   4.1614731   1.4810844   4.0684358
  14  -2.9115270  -2.9048514   0.0001367
  14  -2.9115260   2.5415620   0.0001367
  14   2.5348864  -2.9048504   0.0001370
  14   2.5348874   2.5415630   0.0001370
  14  -1.4779043  -1.4677343  -4.2277095
  14  -1.4779040  -1.4677343   1.2187038
  14  -1.4779033   3.9786790  -4.2277094
  14  -1.4779030   3.9786791   1.2187038
  14   3.9685091  -1.4677333  -4.2277092
  14   3.9685094  -1.4677333   1.2187041
  14   3.9685101   3.9786800  -4.2277091
  14   3.9685104   3.9786801   1.2187041
ATOMS    5
  32   0.0005841   0.0005788  -0.0001384
  14  -4.1620918  -4.1816611  -3.8508613
  14  -4.1620915  -4.1816610   1.5955520
  14  -4.1620908   1.2647523  -3.8508612
  14  -4.1620905   1.2647524   1.5955521
  14   1.2843216  -4.1816601  -3.8508610
  14   1.2843219  -4.1816600   1.5955523
  14   1.2843226   1.2647533  -3.8508609
  14   1.2843229   1.2647534   1.5955524
  14  -0.0006899  -2.5118307  -2.7390259
  14  -0.0006896  -2.5118307   2.7073874
  14  -0.0006889   2.9345827  -2.7390258
  14  -0.0006886   2.9345827   2.7073875
  14  -3.9684040  -1.2808559  -1.3851637
  14  -3.9684036  -1.2808558   4.0612495
  14  -3.9684029   4.1655575  -1.3851637
  14  -3.9684026   4.1655576   4.0612496
  14   1.4780094  -1.2808549  -1.3851634
  14   1.4780097  -1.2808548   4.0612498
  14   1.4780104   4.1655585  -1.3851633
  14   1.4780107   4.1655586   4.0612499
  14  -2.5040516  -0.0006798  -2.7073257
  14  -2.5040513  -0.0006797   2.7390876
  14   2.9423617  -0.0006788  -2.7073254
  14   2.9423620  -0.0006787   2.7390879
  14  -1.2690055  -3.9488336  -1.3774258
  14  -1.2690052  -3.9488335   4.0689875
  14  -1.2690045   1.4975798  -1.3774257
  14  -1.2690042   1.4975799   4.0689876
  14   4.1774078  -3.9488325  -1.3774255
  14   4.1774081  -3.9488325   4.0689878
  14   4.1774088   1.4975808  -1.3774254
  14   4.1774091   1.4975809   4.0689879
  14  -2.9426660  -2.9348867   0.0001595
  14  -2.9426650   2.5115267   0.0001596
  14   2.5037473  -2.9348857   0.0001598
  14   2.5037483   2.5115277   0.0001599
  14  -1.4938748  -1.4820233  -4.2580984
  14  -1.4938745  -1.4820232   1.1883149
  14  -1.4938738   3.9643901  -4.2580983
  14  -1.4938735   3.9643902   1.1883150
  14   3.9525386  -1.4820223  -4.2580980
  14   3.9525389  -1.4820222   1.1883152
  14   3.9525396   3.9643911  -4.2580980
  14   3.9525399   3.9643912   1.1883153
ATOMS    6
  32   0.0006415   0.0006355  -0.0001520
  14  -4.1716155  -4.1931062  -3.8298268
  14  -4.1716152  -4.1931061   1.6165865
  14  -4.1716145   1.2533072  -3.8298267
  14  -4.1716142   1.2533073   1.6165865
  14   1.2747979  -4.1931052  -3.8298265
  14   1.2747982  -4.1931051   1.6165868
  14   1.2747989   1.2533082  -3.8298264
  14   1.2747992   1.2533083   1.6165869
  14  -0.0007576  -2.4910767  -2.7405791
  14  -0.0007573  -2.4910766   2.7058341
  14  -0.0007566   2.9553367  -2.7405791
  14  -0.0007563   2.9553368   2.7058342
  14  -3.9589101  -1.2709920  -1.3855415
  14  -3.9589098  -1.2709920   4.0608718
  14  -3.9589091   4.1754214  -1.3855414
  14  -3.9589088   4.1754214   4.0608718
  14   1.4875033  -1.2709910  -1.3855412
  14   1.4875036  -1.2709910   4.0608721
  14   1.4875043   4.1754224  -1.3855411
  14   1.4875046   4.1754224   4.0608721
  14  -2.4825338  -0.0007465  -2.7057665
  14  -2.4825335  -0.0007464   2.7406468
  14   2.9638796  -0.0007455  -2.7057662
  14   2.9638799  -0.0007454   2.7406471
  14  -1.2579781  -3.9374182  -1.3770437
  14  -1.2579778  -3.9374182   4.0693695
  14  -1.2579771   1.5089952  -1.3770437
  14  -1.2579768   1.5089952   4.0693696
  14   4.1884353  -3.9374172  -1.3770434
  14   4.1884356  -3.9374172   4.0693698
  14   4.1884363   1.5089962  -1.3770434
  14   4.1884366   1.5089962   4.0693699
  14  -2.9642137  -2.9556706   0.0001753
  14  -2.9642127   2.4907428   0.0001753
  14   2.4821997  -2.9556696   0.0001756
  14   2.4822007   2.4907438   0.0001757
  14  -1.5049261  -1.4919110  -4.2791269
  14  -1.5049258  -1.4919109   1.1672864
  14  -1.5049251   3.9545024  -4.2791268
  14  -1.5049248   3.9545024   1.1672865
  14   3.9414872  -1.4919100  -4.2791266
  14   3.9414876  -1.4919099   1.1672867
  14   3.9414882   3.9545034  -4.2791265
  14   3.9414886   3.9545034   1.1672868
ATOMS    7
  32   0.0006708   0.0006646  -0.0001589
  14  -4.1764837  -4.1989566  -3.8190746
  14  -4.1764834  -4.1989565   1.6273387
  14  -4.1764827   1.2474568  -3.8190745
  14  -4.1764824   1.2474568   1.6273388
  14   1.2699296  -4.1989556  -3.8190743
  14   1.2699300  -4.1989555   1.6273390
  14   1.2699306   1.2474578  -3.8190742
  14   1.2699310   1.2474578   1.6273391
  14  -0.0007922  -2.4804679  -2.7413731
  14  -0.0007919  -2.4804678   2.7050401
  14  -0.0007912   2.9659455  -2.7413731
  14  -0.0007909   2.9659456   2.7050402
  14  -3.9540571  -1.2659499  -1.3857346
  14  -3.9540568  -1.2659499   4.0606786
  14  -3.9540561   4.1804635  -1.3857346
  14  -3.9540558   4.1804635   4.0606787
  14   1.4923563  -1.2659489  -1.3857343
  14   1.4923566  -1.2659489   4.0606789
  14   1.4923573   4.1804645  -1.3857342
  14   1.4923576   4.1804645   4.0606790
  14  -2.4715345  -0.0007805  -2.7049694
  14  -2.4715342  -0.0007805   2.7414438
  14   2.9748789  -0.0007795  -2.7049691
  14   2.9748792  -0.0007795   2.7414441
  14  -1.2523412  -3.9315831  -1.3768485
  14  -1.2523409  -3.9315830   4.0695648
  14  -1.2523402   1.5148303  -1.3768484
  14  -1.2523399   1.5148304   4.0695649
  14   4.1940722  -3.9315821  -1.3768482
  14   4.1940725  -3.9315820   4.0695651
  14   4.1940732   1.5148313  -1.3768481
  14   4.1940735   1.5148314   4.0695652
  14  -2.9752282  -2.9662947   0.0001833
  14  -2.9752272   2.4801187   0.0001834
  14   2.4711851  -2.9662937   0.0001836
  14   2.4711861   2.4801197   0.0001837
  14  -1.5105752  -1.4969653  -4.2898760
  14  -1.5105749  -1.4969652   1.1565372
  14  -1.5105742   3.9494481  -4.2898760
  14  -1.5105739   3.9494481   1.1565373
  14   3.9358381  -1.4969643  -4.2898757
  14   3.9358384  -1.4969642   1.1565375
  14   3.9358391   3.9494491  -4.2898757
  14   3.9358394   3.9494491   1.1565376
ATOMS    8
  32   0.0006708   0.0006646  -0.0001589
  14  -4.1764837  -4.1989566  -3.8190746
  14  -4.1764834  -4.1989565   1.6273387
  14  -4.1764827   1.2474568  -3.8190745
  14  -4.1764824   1.2474568   1.6273388
  14   1.2699296  -4.1989556  -3.8190743
  14   1.2699300  -4.1989555   1.6273390
  14   1.2699306   1.2474578  -3.8190742
  14   1.2699310   1.2474578   1.6273391
  14  -0.0007922  -2.4804679  -2.7413731
  14  -0.0007919  -2.4804678   2.7050401
  14  -0.0007912   2.9659455  -2.7413731
  14  -0.0007909   2.9659456   2.7050402
  14  -3.9540571  -1.2659499  -1.3857346
  14  -3.9540568  -1.2659499   4.0606786
  14  -3.9540561   4.1804635  -1.3857346
  14  -3.9540558   4.1804635   4.0606787
  14   1.4923563  -1.2659489  -1.3857343
  14   1.4923566  -1.2659489   4.0606789
  14   1.4923573   4.1804645  -1.3857342
  14   1.4923576   4.1804645   4.0606790
  14  -2.4715345  -0.0007805  -2.7049694
  14  -2.4715342  -0.0007805   2.7414438
  14   2.9748789  -0.0007795  -2.7049691
  14   2.9748792  -0.0007795   2.7414441
  14  -1.2523412  -3.9315831  -1.3768485
  14  -1.2523409  -3.9315830   4.0695648
  14  -1.2523402   1.5148303  -1.3768484
  14  -1.2523399   1.5148304   4.0695649
  14   4.1940722  -3.9315821  -1.3768482
  14   4.1940725  -3.9315820   4.0695651
  14   4.1940732   1.5148313  -1.3768481
  14   4.1940735   1.5148314   4.0695652
  14  -2.9752282  -2.9662947   0.0001833
  14  -2.9752272   2.4801187   0.0001834
  14   2.4711851  -2.9662937   0.0001836
  14   2.4711861   2.4801197   0.0001837
  14  -1.5105752  -1.4969653  -4.2898760
  14  -1.5105749  -1.4969652   1.1565372
  14  -1.5105742   3.9494481  -4.2898760
  14  -1.5105739   3.9494481   1.1565373
  14   3.9358381  -1.4969643  -4.2898757
  14   3.9358384  -1.4969642   1.1565375
  14   3.9358391   3.9494491  -4.2898757
  14   3.9358394   3.9494491   1.1565376
ATOMS    9
  32   0.0006415   0.0006355  -0.0001520
  14  -4.1716155  -4.1931062  -3.8298268
  14  -4.1716152  -4.1931061   1.6165865
  14  -4.1716145   1.2533072  -3.8298267
  14  -4.1716142   1.2533073   1.6165865
  14   1.2747979  -4.1931052  -3.8298265
  14   1.2747982  -4.1931051   1.6165868
  14   1.2747989   1.2533082  -3.8298264
  14   1.2747992   1.2533083   1.6165869
  14  -0.0007576  -2.4910767  -2.7405791
  14  -0.0007573  -2.4910766   2.7058341
  14  -0.0007566   2.9553367  -2.7405791
  14  -0.0007563   2.9553368   2.7058342
  14  -3.9589101  -1.2709920  -1.3855415
  14  -3.9589098  -1.2709920   4.0608718
  14  -3.9589091   4.1754214  -1.3855414
  14  -3.9589088   4.1754214   4.0608718
  14   1.4875033  -1.2709910  -1.3855412
  14   1.4875036  -1.2709910   4.0608721
  14   1.4875043   4.1754224  -1.3855411
  14   1.4875046   4.1754224   4.0608721
  14  -2.4825338  -0.0007465  -2.7057665
  14  -2.4825335  -0.0007464   2.7406468
  14   2.9638796  -0.0007455  -2.7057662
  14   2.9638799  -0.0007454   2.7406471
  14  -1.2579781  -3.9374182  -1.3770437
  14  -1.2579778  -3.9374182   4.0693695
  14  -1.2579771   1.5089952  -1.3770437
  14  -1.2579768   1.5089952   4.0693696
  14   4.1884353  -3.9374172  -1.3770434
  14   4.1884356  -3.9374172   4.0693698
  14   4.1884363   1.5089962  -1.3770434
  14   4.1884366   1.5089962   4.0693699
  14  -2.9642137  -2.9556706   0.0001753
  14  -2.9642127   2.4907428   0.0001753
  14   2.4821997  -2.9556696   0.0001756
  14   2.4822007   2.4907438   0.0001757
  14  -1.5049261  -1.4919110  -4.2791269
  14  -1.5049258  -1.4919109   1.1672864
  14  -1.5049251   3.9545024  -4.2791268
  14  -1.5049248   3.9545024   1.1672865
  14   3.9414872  -1.4919100  -4.2791266
  14   3.9414876  -1.4919099   1.1672867
  14   3.9414882   3.9545034  -4.2791265
  14   3.9414886   3.9545034   1.1672868
ATOMS   10
  32   0.0005841   0.0005788  -0.0001384
  14  -4.1620918  -4.1816611  -3.8508613
  14  -4.1620915  -4.1816610   1.5955520
  14  -4.1620908   1.2647523  -3.8508612
  14  -4.1620905   1.2647524   1.5955521
  14   1.2843216  -4.1816601  -3.8508610
  14   1.2843219  -4.1816600   1.5955523
  14   1.2843226   1.2647533  -3.8508609
  14   1.2843229   1.2647534   1.5955524
  14  -0.0006899  -2.5118307  -2.7390259
  14  -0.0006896  -2.5118307   2.7073874
  14  -0.0006889   2.9345827  -2.7390258
  14  -0.0006886   2.9345827   2.7073875
  14  -3.9684040  -1.2808559  -1.3851637
  14  -3.9684036  -1.2808558   4.0612495
  14  -3.9684029   4.1655575  -1.3851637
  14  -3.9684026   4.1655576   4.0612496
  14   1.4780094  -1.2808549  -1.3851634
  14   1.4780097  -1.2808548   4.0612498
  14   1.4780104   4.1655585  -1.3851633
  14   1.4780107   4.1655586   4.0612499
  14  -2.5040516  -0.0006798  -2.7073257
  14  -2.5040513  -0.0006797   2.7390876
  14   2.9423617  -0.0006788  -2.7073254
  14   2.9423620  -0.0006787   2.7390879
  14  -1.2690055  -3.9488336  -1.3774258
  14  -1.2690052  -3.9488335   4.0689875
  14  -1.2690045   1.4975798  -1.3774257
  14  -1.2690042   1.4975799   4.0689876
  14   4.1774078  -3.9488325  -1.3774255
  14   4.1774081  -3.9488325   4.0689878
  14   4.1774088   1.4975808  -1.3774254
  14   4.1774091   1.4975809   4.0689879
  14  -2.9426660  -2.9348867   0.0001595
  14  -2.9426650   2.5115267   0.0001596
  14   2.5037473  -2.9348857   0.0001598
  14   2.5037483   2.5115277   0.0001599
  14  -1.4938748  -1.4820233  -4.2580984
  14  -1.4938745  -1.4820232   1.1883149
  14  -1.4938738   3.9643901  -4.2580983
  14  -1.4938735   3.9643902   1.1883150
  14   3.9525386  -1.4820223  -4.2580980
  14   3.9525389  -1.4820222   1.1883152
  14   3.9525396   3.9643911  -4.2580980
  14   3.9525399   3.9643912   1.1883153
ATOMS   11
  32   0.0005011   0.0004967  -0.0001189
  14  -4.1483289  -4.1651214  -3.8812588
  14  -4.1483285  -4.1651213   1.5651545
  14  -4.1483279   1.2812920  -3.8812587
  14  -4.1483275   1.2812921   1.5651546
  14   1.2980845  -4.1651204  -3.8812584
  14   1.2980848  -4.1651203   1.5651548
  14   1.2980855   1.2812930  -3.8812584
  14   1.2980858   1.2812931   1.5651549
  14  -0.0005922  -2.5418229  -2.7367812
  14  -0.0005919  -2.5418228   2.7096321
  14  -0.0005912   2.9045905  -2.7367811
  14  -0.0005909   2.9045906   2.7096321
  14  -3.9821238  -1.2951103  -1.3846178
  14  -3.9821235  -1.2951103   4.0617955
  14  -3.9821228   4.1513031  -1.3846177
  14  -3.9821225   4.1513031   4.0617956
  14   1.4642896  -1.2951093  -1.3846175
  14   1.4642899  -1.2951093   4.0617958
  14   1.4642906   4.1513041  -1.3846174
  14   1.4642909   4.1513041   4.0617959
  14  -2.5351476  -0.0005835  -2.7095790
  14  -2.5351473  -0.0005834   2.7368343
  14   2.9112658  -0.0005825  -2.7095787
  14   2.9112661  -0.0005824   2.7368346
  14  -1.2849416  -3.9653301  -1.3779778
  14  -1.2849413  -3.9653300   4.0684354
  14  -1.2849406   1.4810833  -1.3779778
  14  -1.2849403   1.4810834   4.0684355
  14   4.1614718  -3.9653291  -1.3779775
  14   4.1614721  -3.9653290   4.0684357
  14   4.1614728   1.4810843  -1.3779774
  14   4.1614731   1.4810844   4.0684358
  14  -2.9115270  -2.9048514   0.0001367
  14  -2.9115260   2.5415620   0.0001367
  14   2.5348864  -2.9048504   0.0001370
  14   2.5348874   2.5415630   0.0001370
  14  -1.4779043  -1.4677343  -4.2277095
  14  -1.4779040  -1.4677343   1.2187038
  14  -1.4779033   3.9786790  -4.2277094
  14  -1.4779030   3.9786791   1.2187038
  14   3.9685091  -1.4677333  -4.2277092
  14   3.9685094  -1.4677333   1.2187041
  14   3.9685101   3.9786800  -4.2277091
  14   3.9685104   3.9786801   1.2187041
ATOMS   12
  32   0.0003962   0.0003929  -0.0000941
  14  -4.1309282  -4.1442100  -3.9196907
  14  -4.1309279  -4.1442100   1.5267226
  14  -4.1309272   1.3022033  -3.9196906
  14  -4.1309269   1.3022034   1.5267227
  14   1.3154852  -4.1442090  -3.9196904
  14   1.3154855  -4.1442090   1.5267229
  14   1.3154862   1.3022044  -3.9196903
  14   1.3154865   1.3022044   1.5267230
  14  -0.0004685  -2.5797424  -2.7339432
  14  -0.0004682  -2.5797423   2.7124700
  14  -0.0004675   2.8666710  -2.7339432
  14  -0.0004672   2.8666710   2.7124701
  14  -3.9994699  -1.3131325  -1.3839275
  14  -3.9994696  -1.3131324   4.0624857
  14  -3.9994689   4.1332809  -1.3839275
  14  -3.9994686   4.1332810   4.0624858
  14   1.4469434  -1.3131315  -1.3839272
  14   1.4469438  -1.3131314   4.0624860
  14   1.4469444   4.1332819  -1.3839271
  14   1.4469448   4.1332820   4.0624861
  14  -2.5744627  -0.0004617  -2.7124279
  14  -2.5744623  -0.0004616   2.7339854
  14   2.8719507  -0.0004607  -2.7124276
  14   2.8719510  -0.0004606   2.7339857
  14  -1.3050897  -3.9861869  -1.3786758
  14  -1.3050894  -3.9861868   4.0677374
  14  -1.3050887   1.4602265  -1.3786757
  14  -1.3050884   1.4602265   4.0677375
  14   4.1413237  -3.9861859  -1.3786755
  14   4.1413240  -3.9861858   4.0677378
  14   4.1413247   1.4602275  -1.3786754
  14   4.1413250   1.4602275   4.0677378
  14  -2.8721574  -2.8668774   0.0001078
  14  -2.8721564   2.5795360   0.0001079
  14   2.5742560  -2.8668764   0.0001081
  14   2.5742570   2.5795370   0.0001082
  14  -1.4577125  -1.4496686  -4.1892885
  14  -1.4577122  -1.4496685   1.2571248
  14  -1.4577115   3.9967448  -4.1892884
  14  -1.4577112   3.9967449   1.2571249
  14   3.9887008  -1.4496676  -4.1892882
  14   3.9887012  -1.4496675   1.2571251
  14   3.9887018   3.9967458  -4.1892881
  14   3.9887022   3.9967459   1.2571252
ATOMS   13
  32   0.0002739   0.0002720  -0.0000653
  14  -4.1106503  -4.1198410  -3.9644774
  14  -4.1106500  -4.1198409   1.4819358
  14  -4.1106493   1.3265724  -3.9644774
  14  -4.1106490   1.3265725   1.4819359
  14   1.3357631  -4.1198400  -3.9644771
  14   1.3357634  -4.1198399   1.4819361
  14   1.3357641   1.3265734  -3.9644770
  14   1.3357644   1.3265735   1.4819362
  14  -0.0003244  -2.6239320  -2.7306360
  14  -0.0003241  -2.6239319   2.7157773
  14  -0.0003234   2.8224814  -2.7306359
  14  -0.0003231   2.8224815   2.7157773
  14  -4.0196843  -1.3341346  -1.3831232
  14  -4.0196840  -1.3341345   4.0632901
  14  -4.0196833   4.1122788  -1.3831231
  14  -4.0196830   4.1122789   4.0632902
  14   1.4267291  -1.3341336  -1.3831228
  14   1.4267294  -1.3341335   4.0632904
  14   1.4267301   4.1122798  -1.3831228
  14   1.4267304   4.1122799   4.0632905
  14  -2.6202785  -0.0003198  -2.7157478
  14  -2.6202782  -0.0003197   2.7306655
  14   2.8261348  -0.0003188  -2.7157475
  14   2.8261352  -0.0003187   2.7306658
  14  -1.3285694  -4.0104925  -1.3794892
  14  -1.3285691  -4.0104924   4.0669240
  14  -1.3285684   1.4359209  -1.3794892
  14  -1.3285681   1.4359210   4.0669241
  14   4.1178440  -4.0104915  -1.3794889
  14   4.1178443  -4.0104914   4.0669243
  14   4.1178450   1.4359219  -1.3794888
  14   4.1178453   1.4359220   4.0669244
  14  -2.8262780  -2.8226243   0.0000742
  14  -2.8262770   2.6237891   0.0000743
  14   2.6201354  -2.8226233   0.0000745
  14   2.6201364   2.6237901   0.0000746
  14  -1.4341820  -1.4286157  -4.1445144
  14  -1.4341817  -1.4286156   1.3018988
  14  -1.4341810   4.0177977  -4.1445144
  14  -1.4341807   4.0177978   1.3018989
  14   4.0122313  -1.4286147  -4.1445141
  14   4.0122317  -1.4286146   1.3018991
  14   4.0122323   4.0177987  -4.1445141
  14   4.0122327   4.0177988   1.3018992
ATOMS   14
  32   0.0001397   0.0001392  -0.0000336
  14  -4.0883814  -4.0930792  -4.0136616
  14  -4.0883811  -4.0930791   1.4327517
  14  -4.0883804   1.3533342  -4.0136615
  14  -4.0883801   1.3533342   1.4327518
  14   1.3580320  -4.0930782  -4.0136613
  14   1.3580323  -4.0930781   1.4327520
  14   1.3580330   1.3533352  -4.0136612
  14   1.3580333   1.3533352   1.4327521
  14  -0.0001662  -2.6724603  -2.7270041
  14  -0.0001659  -2.6724603   2.7194092
  14  -0.0001652   2.7739530  -2.7270040
  14  -0.0001649   2.7739531   2.7194093
  14  -4.0418835  -1.3571988  -1.3822398
  14  -4.0418832  -1.3571987   4.0641735
  14  -4.0418825   4.0892146  -1.3822397
  14  -4.0418822   4.0892147   4.0641736
  14   1.4045299  -1.3571978  -1.3822395
  14   1.4045302  -1.3571977   4.0641738
  14   1.4045309   4.0892156  -1.3822394
  14   1.4045312   4.0892157   4.0641739
  14  -2.6705929  -0.0001639  -2.7193937
  14  -2.6705926  -0.0001638   2.7270196
  14   2.7758205  -0.0001629  -2.7193934
  14   2.7758208  -0.0001628   2.7270199
  14  -1.3543545  -4.0371845  -1.3803825
  14  -1.3543541  -4.0371844   4.0660308
  14  -1.3543535   1.4092289  -1.3803824
  14  -1.3543531   1.4092290   4.0660309
  14   4.0920589  -4.0371834  -1.3803822
  14   4.0920592  -4.0371834   4.0660311
  14   4.0920599   1.4092299  -1.3803821
  14   4.0920602   1.4092300   4.0660312
  14  -2.7758939  -2.7740262   0.0000373
  14  -2.7758929   2.6723872   0.0000373
  14   2.6705195  -2.7740252   0.0000376
  14   2.6705205   2.6723882   0.0000377
  14  -1.4083412  -1.4054956  -4.0953443
  14  -1.4083409  -1.4054956   1.3510690
  14  -1.4083402   4.0409178  -4.0953442
  14  -1.4083399   4.0409178   1.3510691
  14   4.0380722  -1.4054946  -4.0953439
  14   4.0380725  -1.4054946   1.3510693
  14   4.0380732   4.0409188  -4.0953439
  14   4.0380735   4.0409188   1.3510694
ATOMS   15
  32  -0.0000007   0.0000004  -0.0000005
  14  -4.0650947  -4.0650944  -4.0650935
  14  -4.0650944  -4.0650943   1.3813197
  14  -4.0650937   1.3813190  -4.0650935
  14  -4.0650934   1.3813191   1.3813198
  14   1.3813187  -4.0650934  -4.0650932
  14   1.3813190  -4.0650933   1.3813200
  14   1.3813197   1.3813200  -4.0650932
  14   1.3813200   1.3813201   1.3813201
  14  -0.0000008  -2.7232066  -2.7232061
  14  -0.0000005  -2.7232065   2.7232072
  14   0.0000002   2.7232068  -2.7232060
  14   0.0000005   2.7232069   2.7232072
  14  -4.0650971  -1.3813171  -1.3813161
  14  -4.0650968  -1.3813170   4.0650972
  14  -4.0650961   4.0650963  -1.3813160
  14  -4.0650958   4.0650964   4.0650973
  14   1.3813162  -1.3813161  -1.3813157
  14   1.3813165  -1.3813160   4.0650975
  14   1.3813172   4.0650973  -1.3813157
  14   1.3813175   4.0650974   4.0650976
  14  -2.7232067  -0.0000010  -2.7232062
  14  -2.7232064  -0.0000009   2.7232070
  14   2.7232067   0.0000000  -2.7232059
  14   2.7232070   0.0000001   2.7232073
  14  -1.3813179  -4.0650963  -1.3813166
  14  -1.3813176  -4.0650962   4.0650967
  14  -1.3813169   1.3813171  -1.3813165
  14  -1.3813166   1.3813171   4.0650968
  14   4.0650954  -4.0650953  -1.3813163
  14   4.0650957  -4.0650952   4.0650970
  14   4.0650964   1.3813181  -1.3813162
  14   4.0650968   1.3813181   4.0650971
  14  -2.7232071  -2.7232070  -0.0000013
  14  -2.7232061   2.7232064  -0.0000013
  14   2.7232063  -2.7232060  -0.0000010
  14   2.7232073   2.7232074  -0.0000009
  14  -1.3813193  -1.3813190  -4.0439269
  14  -1.3813190  -1.3813189   1.4024864
  14  -1.3813183   4.0650944  -4.0439268
  14  -1.3813180   4.0650945   1.4024865
  14   4.0650940  -1.3813180  -4.0439266
  14   4.0650944  -1.3813179   1.4024867
  14   4.0650951   4.0650954  -4.0439265
  14   4.0650954   4.0650955   1.4024868
ATOMS   16
  32  -0.0001411  -0.0001384   0.0000326
  14  -4.0418081  -4.0371096  -4.1165255
  14  -4.0418078  -4.0371095   1.3298878
  14  -4.0418071   1.4093038  -4.1165254
  14  -4.0418068   1.4093039   1.3298878
  14   1.4046053  -4.0371086  -4.1165252
  14   1.4046056  -4.0371085   1.3298881
  14   1.4046063   1.4093048  -4.1165251
  14   1.4046066   1.4093049   1.3298882
  14   0.0001647  -2.7739528  -2.7194082
  14   0.0001650  -2.7739527   2.7270051
  14   0.0001657   2.6724606  -2.7194081
  14   0.0001660   2.6724607   2.7270052
  14  -4.0883108  -1.4054354  -1.3803923
  14  -4.0883105  -1.4054353   4.0660209
  14  -4.0883098   4.0409780  -1.3803922
  14  -4.0883095   4.0409780   4.0660210
  14   1.3581025  -1.4054344  -1.3803920
  14   1.3581029  -1.4054343   4.0660213
  14   1.3581035   4.0409790  -1.3803919
  14   1.3581039   4.0409790   4.0660213
  14  -2.7758205   0.0001620  -2.7270188
  14  -2.7758202   0.0001621   2.7193945
  14   2.6705929   0.0001630  -2.7270185
  14   2.6705932   0.0001631   2.7193948
  14  -1.4082814  -4.0930082  -1.3822507
  14  -1.4082811  -4.0930081   4.0641626
  14  -1.4082804   1.3534052  -1.3822506
  14  -1.4082801   1.3534053   4.0641627
  14   4.0381320  -4.0930072  -1.3822504
  14   4.0381323  -4.0930071   4.0641629
  14   4.0381330   1.3534062  -1.3822503
  14   4.0381333   1.3534063   4.0641630
  14  -2.6705204  -2.6723878  -0.0000399
  14  -2.6705194   2.7740255  -0.0000399
  14   2.7758930  -2.6723868  -0.0000396
  14   2.7758940   2.7740265  -0.0000396
  14  -1.3542975  -1.3571423  -3.9925095
  14  -1.3542972  -1.3571422   1.4539038
  14  -1.3542965   4.0892711  -3.9925094
  14  -1.3542962   4.0892712   1.4539038
  14   4.0921159  -1.3571413  -3.9925092
  14   4.0921162  -1.3571412   1.4539041
  14   4.0921169   4.0892721  -3.9925091
  14   4.0921172   4.0892722   1.4539041
ATOMS   17
  32  -0.0002754  -0.0002712   0.0000642
  14  -4.0195392  -4.0103478  -4.1657096
  14  -4.0195389  -4.0103477   1.2807036
  14  -4.0195382   1.4360656  -4.1657096
  14  -4.0195379   1.4360656   1.2807037