# --- AXSF block for ---- iev =    13  freq =     404.812865 cm-1
ANIMSTEPS   30
ATOMS    1
  32  -0.0000006  -0.0000011  -0.0000027
  14  -4.1075131  -4.1075420  -4.1069557
  14  -4.1075128  -4.1075420   1.3394576
  14  -4.1075121   1.3388713  -4.1069556
  14  -4.1075118   1.3388714   1.3394576
  14   1.3389003  -4.1075410  -4.1069554
  14   1.3389006  -4.1075410   1.3394579
  14   1.3389013   1.3388724  -4.1069553
  14   1.3389016   1.3388724   1.3394580
  14  -0.0000054  -2.7232110  -2.7232121
  14  -0.0000051  -2.7232109   2.7232012
  14  -0.0000044   2.7232024  -2.7232120
  14  -0.0000041   2.7232025   2.7232012
  14  -4.1075155  -1.3388548  -1.3394100
  14  -4.1075152  -1.3388548   4.1070033
  14  -4.1075145   4.1075586  -1.3394099
  14  -4.1075142   4.1075586   4.1070034
  14   1.3388979  -1.3388538  -1.3394097
  14   1.3388982  -1.3388538   4.1070036
  14   1.3388989   4.1075596  -1.3394096
  14   1.3388992   4.1075596   4.1070037
  14  -2.7232028  -0.0000130  -2.7232117
  14  -2.7232025  -0.0000130   2.7232016
  14   2.7232106  -0.0000120  -2.7232114
  14   2.7232109  -0.0000120   2.7232019
  14  -1.3388996  -4.1075440  -1.3394252
  14  -1.3388993  -4.1075439   4.1069881
  14  -1.3388986   1.3388694  -1.3394251
  14  -1.3388983   1.3388695   4.1069882
  14   4.1075138  -4.1075430  -1.3394248
  14   4.1075141  -4.1075429   4.1069884
  14   4.1075148   1.3388704  -1.3394248
  14   4.1075151   1.3388705   4.1069885
  14  -2.7232138  -2.7232096  -0.0000428
  14  -2.7232128   2.7232038  -0.0000427
  14   2.7231996  -2.7232086  -0.0000425
  14   2.7232006   2.7232048  -0.0000424
  14  -1.3389009  -1.3388567  -4.0857890
  14  -1.3389006  -1.3388566   1.3606242
  14  -1.3388999   4.1075567  -4.0857890
  14  -1.3388996   4.1075568   1.3606243
  14   4.1075124  -1.3388557  -4.0857887
  14   4.1075127  -1.3388556   1.3606245
  14   4.1075134   4.1075577  -4.0857887
  14   4.1075137   4.1075578   1.3606246
ATOMS    2
  32  -0.0000005  -0.0000024  -0.0000047
  14  -4.1480776  -4.1481345  -4.1469883
  14  -4.1480773  -4.1481344   1.2994250
  14  -4.1480766   1.2982789  -4.1469882
  14  -4.1480763   1.2982789   1.2994251
  14   1.2983358  -4.1481335  -4.1469880
  14   1.2983361  -4.1481334   1.2994253
  14   1.2983368   1.2982799  -4.1469879
  14   1.2983371   1.2982799   1.2994254
  14  -0.0000099  -2.7232152  -2.7232178
  14  -0.0000096  -2.7232151   2.7231954
  14  -0.0000089   2.7231982  -2.7232178
  14  -0.0000086   2.7231983   2.7231955
  14  -4.1480800  -1.2982484  -1.2993354
  14  -4.1480797  -1.2982483   4.1470779
  14  -4.1480790   4.1481650  -1.2993353
  14  -4.1480787   4.1481651   4.1470779
  14   1.2983334  -1.2982473  -1.2993351
  14   1.2983337  -1.2982473   4.1470782
  14   1.2983344   4.1481660  -1.2993350
  14   1.2983347   4.1481661   4.1470782
  14  -2.7231991  -0.0000246  -2.7232169
  14  -2.7231988  -0.0000245   2.7231963
  14   2.7232143  -0.0000236  -2.7232166
  14   2.7232146  -0.0000235   2.7231966
  14  -1.2983351  -4.1481365  -1.2993646
  14  -1.2983348  -4.1481364   4.1470487
  14  -1.2983341   1.2982769  -1.2993645
  14  -1.2983338   1.2982770   4.1470488
  14   4.1480783  -4.1481354  -1.2993643
  14   4.1480786  -4.1481354   4.1470490
  14   4.1480793   1.2982779  -1.2993642
  14   4.1480796   1.2982780   4.1470491
  14  -2.7232201  -2.7232121  -0.0000824
  14  -2.7232191   2.7232013  -0.0000823
  14   2.7231933  -2.7232111  -0.0000821
  14   2.7231943   2.7232023  -0.0000820
  14  -1.2983365  -1.2982502  -4.1258216
  14  -1.2983362  -1.2982501   1.3205916
  14  -1.2983355   4.1481632  -4.1258216
  14  -1.2983352   4.1481633   1.3205917
  14   4.1480769  -1.2982492  -4.1258213
  14   4.1480772  -1.2982491   1.3205920
  14   4.1480779   4.1481642  -4.1258212
  14   4.1480782   4.1481643   1.3205920
ATOMS    3
  32  -0.0000004  -0.0000037  -0.0000066
  14  -4.1850153  -4.1850978  -4.1834417
  14  -4.1850150  -4.1850977   1.2629716
  14  -4.1850143   1.2613156  -4.1834416
  14  -4.1850140   1.2613157   1.2629717
  14   1.2613981  -4.1850968  -4.1834414
  14   1.2613984  -4.1850967   1.2629719
  14   1.2613991   1.2613166  -4.1834413
  14   1.2613994   1.2613167   1.2629720
  14  -0.0000140  -2.7232191  -2.7232231
  14  -0.0000137  -2.7232190   2.7231902
  14  -0.0000130   2.7231943  -2.7232230
  14  -0.0000127   2.7231944   2.7231903
  14  -4.1850177  -1.2612724  -1.2628438
  14  -4.1850174  -1.2612723   4.1835695
  14  -4.1850167   4.1851410  -1.2628437
  14  -4.1850164   4.1851411   4.1835696
  14   1.2613956  -1.2612714  -1.2628435
  14   1.2613959  -1.2612713   4.1835698
  14   1.2613966   4.1851420  -1.2628434
  14   1.2613969   4.1851421   4.1835699
  14  -2.7231957  -0.0000351  -2.7232217
  14  -2.7231954  -0.0000350   2.7231916
  14   2.7232177  -0.0000341  -2.7232214
  14   2.7232180  -0.0000340   2.7231919
  14  -1.2613973  -4.1850997  -1.2628857
  14  -1.2613970  -4.1850996   4.1835276
  14  -1.2613963   1.2613137  -1.2628856
  14  -1.2613960   1.2613138   4.1835277
  14   4.1850160  -4.1850987  -1.2628854
  14   4.1850163  -4.1850986   4.1835279
  14   4.1850170   1.2613147  -1.2628853
  14   4.1850173   1.2613148   4.1835280
  14  -2.7232259  -2.7232144  -0.0001184
  14  -2.7232249   2.7231990  -0.0001184
  14   2.7231875  -2.7232134  -0.0001181
  14   2.7231885   2.7232000  -0.0001181
  14  -1.2613987  -1.2612742  -4.1622750
  14  -1.2613984  -1.2612742   1.2841383
  14  -1.2613977   4.1851392  -4.1622749
  14  -1.2613974   4.1851392   1.2841383
  14   4.1850146  -1.2612732  -4.1622747
  14   4.1850150  -1.2612732   1.2841386
  14   4.1850156   4.1851402  -4.1622746
  14   4.1850160   4.1851402   1.2841386
ATOMS    4
  32  -0.0000004  -0.0000048  -0.0000082
  14  -4.2167120  -4.2168163  -4.2147227
  14  -4.2167116  -4.2168162   1.2316906
  14  -4.2167110   1.2295971  -4.2147226
  14  -4.2167106   1.2295972   1.2316907
  14   1.2297014  -4.2168153  -4.2147224
  14   1.2297017  -4.2168152   1.2316909
  14   1.2297024   1.2295981  -4.2147223
  14   1.2297027   1.2295982   1.2316910
  14  -0.0000175  -2.7232224  -2.7232275
  14  -0.0000172  -2.7232223   2.7231857
  14  -0.0000165   2.7231910  -2.7232275
  14  -0.0000162   2.7231911   2.7231858
  14  -4.2167144  -1.2295429  -1.2315300
  14  -4.2167141  -1.2295429   4.2148833
  14  -4.2167134   4.2168705  -1.2315299
  14  -4.2167131   4.2168705   4.2148834
  14   1.2296990  -1.2295419  -1.2315296
  14   1.2296993  -1.2295419   4.2148836
  14   1.2297000   4.2168715  -1.2315296
  14   1.2297003   4.2168715   4.2148837
  14  -2.7231928  -0.0000442  -2.7232258
  14  -2.7231925  -0.0000441   2.7231875
  14   2.7232205  -0.0000432  -2.7232255
  14   2.7232209  -0.0000431   2.7231878
  14  -1.2297007  -4.2168182  -1.2315828
  14  -1.2297004  -4.2168181   4.2148305
  14  -1.2296997   1.2295952  -1.2315827
  14  -1.2296994   1.2295953   4.2148305
  14   4.2167127  -4.2168172  -1.2315825
  14   4.2167130  -4.2168171   4.2148308
  14   4.2167137   1.2295962  -1.2315824
  14   4.2167140   1.2295963   4.2148309
  14  -2.7232308  -2.7232163  -0.0001494
  14  -2.7232298   2.7231970  -0.0001493
  14   2.7231826  -2.7232153  -0.0001491
  14   2.7231836   2.7231980  -0.0001490
  14  -1.2297021  -1.2295448  -4.1935560
  14  -1.2297018  -1.2295447   1.2528572
  14  -1.2297011   4.2168686  -4.1935560
  14  -1.2297008   4.2168687   1.2528573
  14   4.2167113  -1.2295438  -4.1935557
  14   4.2167116  -1.2295437   1.2528576
  14   4.2167123   4.2168696  -4.1935556
  14   4.2167126   4.2168697   1.2528576
ATOMS    5
  32  -0.0000003  -0.0000057  -0.0000094
  14  -4.2417822  -4.2419038  -4.2394642
  14  -4.2417819  -4.2419037   1.2069491
  14  -4.2417812   1.2045096  -4.2394641
  14  -4.2417809   1.2045097   1.2069492
  14   1.2046312  -4.2419028  -4.2394639
  14   1.2046315  -4.2419027   1.2069494
  14   1.2046322   1.2045106  -4.2394638
  14   1.2046325   1.2045107   1.2069495
  14  -0.0000202  -2.7232250  -2.7232311
  14  -0.0000199  -2.7232249   2.7231822
  14  -0.0000192   2.7231884  -2.7232310
  14  -0.0000189   2.7231885   2.7231822
  14  -4.2417846  -1.2044468  -1.2067625
  14  -4.2417843  -1.2044467   4.2396508
  14  -4.2417836   4.2419666  -1.2067624
  14  -4.2417833   4.2419667   4.2396508
  14   1.2046288  -1.2044457  -1.2067622
  14   1.2046291  -1.2044457   4.2396511
  14   1.2046298   4.2419676  -1.2067621
  14   1.2046301   4.2419677   4.2396511
  14  -2.7231905  -0.0000513  -2.7232290
  14  -2.7231902  -0.0000512   2.7231843
  14   2.7232228  -0.0000503  -2.7232287
  14   2.7232231  -0.0000502   2.7231846
  14  -1.2046305  -4.2419057  -1.2068240
  14  -1.2046302  -4.2419056   4.2395893
  14  -1.2046295   1.2045077  -1.2068239
  14  -1.2046292   1.2045077   4.2395893
  14   4.2417829  -4.2419047  -1.2068237
  14   4.2417832  -4.2419046   4.2395896
  14   4.2417839   1.2045087  -1.2068236
  14   4.2417842   1.2045087   4.2395897
  14  -2.7232347  -2.7232179  -0.0001739
  14  -2.7232337   2.7231955  -0.0001738
  14   2.7231787  -2.7232169  -0.0001736
  14   2.7231797   2.7231965  -0.0001735
  14  -1.2046319  -1.2044486  -4.2182975
  14  -1.2046316  -1.2044485   1.2281157
  14  -1.2046309   4.2419648  -4.2182975
  14  -1.2046305   4.2419649   1.2281158
  14   4.2417815  -1.2044476  -4.2182972
  14   4.2417818  -1.2044475   1.2281161
  14   4.2417825   4.2419658  -4.2182971
  14   4.2417828   4.2419659   1.2281161
ATOMS    6
  32  -0.0000003  -0.0000063  -0.0000103
  14  -4.2591303  -4.2592639  -4.2565848
  14  -4.2591300  -4.2592638   1.1898284
  14  -4.2591293   1.1871495  -4.2565848
  14  -4.2591290   1.1871496   1.1898285
  14   1.1872830  -4.2592629  -4.2565845
  14   1.1872834  -4.2592628   1.1898287
  14   1.1872840   1.1871505  -4.2565845
  14   1.1872844   1.1871506   1.1898288
  14  -0.0000222  -2.7232268  -2.7232335
  14  -0.0000218  -2.7232267   2.7231797
  14  -0.0000212   2.7231866  -2.7232335
  14  -0.0000208   2.7231867   2.7231798
  14  -4.2591328  -1.1870807  -1.1896239
  14  -4.2591324  -1.1870806   4.2567894
  14  -4.2591317   4.2593327  -1.1896238
  14  -4.2591314   4.2593328   4.2567895
  14   1.1872806  -1.1870796  -1.1896236
  14   1.1872809  -1.1870796   4.2567897
  14   1.1872816   4.2593337  -1.1896235
  14   1.1872819   4.2593338   4.2567898
  14  -2.7231890  -0.0000562  -2.7232312
  14  -2.7231887  -0.0000562   2.7231820
  14   2.7232244  -0.0000552  -2.7232309
  14   2.7232247  -0.0000552   2.7231823
  14  -1.1872823  -4.2592658  -1.1896914
  14  -1.1872820  -4.2592658   4.2567219
  14  -1.1872813   1.1871476  -1.1896913
  14  -1.1872810   1.1871476   4.2567220
  14   4.2591310  -4.2592648  -1.1896911
  14   4.2591313  -4.2592648   4.2567222
  14   4.2591320   1.1871486  -1.1896910
  14   4.2591324   1.1871486   4.2567223
  14  -2.7232374  -2.7232190  -0.0001908
  14  -2.7232364   2.7231944  -0.0001907
  14   2.7231759  -2.7232180  -0.0001905
  14   2.7231769   2.7231954  -0.0001904
  14  -1.1872837  -1.1870825  -4.2354182
  14  -1.1872834  -1.1870824   1.2109951
  14  -1.1872827   4.2593309  -4.2354181
  14  -1.1872824   4.2593310   1.2109951
  14   4.2591297  -1.1870815  -4.2354179
  14   4.2591300  -1.1870814   1.2109954
  14   4.2591307   4.2593319  -4.2354178
  14   4.2591310   4.2593320   1.2109955
ATOMS    7
  32  -0.0000003  -0.0000066  -0.0000107
  14  -4.2679982  -4.2681379  -4.2653364
  14  -4.2679979  -4.2681378   1.1810769
  14  -4.2679972   1.1782755  -4.2653363
  14  -4.2679969   1.1782756   1.1810769
  14   1.1784152  -4.2681369  -4.2653361
  14   1.1784155  -4.2681368   1.1810772
  14   1.1784162   1.1782765  -4.2653360
  14   1.1784165   1.1782766   1.1810772
  14  -0.0000231  -2.7232277  -2.7232348
  14  -0.0000228  -2.7232277   2.7231785
  14  -0.0000221   2.7231857  -2.7232347
  14  -0.0000218   2.7231857   2.7231785
  14  -4.2680006  -1.1782036  -1.1808631
  14  -4.2680003  -1.1782035   4.2655501
  14  -4.2679996   4.2682098  -1.1808630
  14  -4.2679993   4.2682099   4.2655502
  14   1.1784128  -1.1782026  -1.1808628
  14   1.1784131  -1.1782025   4.2655505
  14   1.1784138   4.2682108  -1.1808627
  14   1.1784141   4.2682109   4.2655505
  14  -2.7231882  -0.0000588  -2.7232324
  14  -2.7231878  -0.0000587   2.7231809
  14   2.7232252  -0.0000578  -2.7232321
  14   2.7232255  -0.0000577   2.7231812
  14  -1.1784145  -4.2681398  -1.1809337
  14  -1.1784142  -4.2681397   4.2654796
  14  -1.1784135   1.1782736  -1.1809336
  14  -1.1784132   1.1782737   4.2654797
  14   4.2679989  -4.2681388  -1.1809334
  14   4.2679992  -4.2681387   4.2654799
  14   4.2679999   1.1782746  -1.1809333
  14   4.2680002   1.1782747   4.2654800
  14  -2.7232388  -2.7232195  -0.0001995
  14  -2.7232378   2.7231939  -0.0001994
  14   2.7231746  -2.7232185  -0.0001992
  14   2.7231756   2.7231949  -0.0001991
  14  -1.1784159  -1.1782055  -4.2441698
  14  -1.1784156  -1.1782054   1.2022435
  14  -1.1784149   4.2682079  -4.2441697
  14  -1.1784146   4.2682080   1.2022436
  14   4.2679975  -1.1782045  -4.2441695
  14   4.2679978  -1.1782044   1.2022438
  14   4.2679985   4.2682089  -4.2441694
  14   4.2679988   4.2682090   1.2022439
ATOMS    8
  32  -0.0000003  -0.0000066  -0.0000107
  14  -4.2679982  -4.2681379  -4.2653364
  14  -4.2679979  -4.2681378   1.1810769
  14  -4.2679972   1.1782755  -4.2653363
  14  -4.2679969   1.1782756   1.1810769
  14   1.1784152  -4.2681369  -4.2653361
  14   1.1784155  -4.2681368   1.1810772
  14   1.1784162   1.1782765  -4.2653360
  14   1.1784165   1.1782766   1.1810772
  14  -0.0000231  -2.7232277  -2.7232348
  14  -0.0000228  -2.7232277   2.7231785
  14  -0.0000221   2.7231857  -2.7232347
  14  -0.0000218   2.7231857   2.7231785
  14  -4.2680006  -1.1782036  -1.1808631
  14  -4.2680003  -1.1782035   4.2655501
  14  -4.2679996   4.2682098  -1.1808630
  14  -4.2679993   4.2682099   4.2655502
  14   1.1784128  -1.1782026  -1.1808628
  14   1.1784131  -1.1782025   4.2655505
  14   1.1784138   4.2682108  -1.1808627
  14   1.1784141   4.2682109   4.2655505
  14  -2.7231882  -0.0000588  -2.7232324
  14  -2.7231878  -0.0000587   2.7231809
  14   2.7232252  -0.0000578  -2.7232321
  14   2.7232255  -0.0000577   2.7231812
  14  -1.1784145  -4.2681398  -1.1809337
  14  -1.1784142  -4.2681397   4.2654796
  14  -1.1784135   1.1782736  -1.1809336
  14  -1.1784132   1.1782737   4.2654797
  14   4.2679989  -4.2681388  -1.1809334
  14   4.2679992  -4.2681387   4.2654799
  14   4.2679999   1.1782746  -1.1809333
  14   4.2680002   1.1782747   4.2654800
  14  -2.7232388  -2.7232195  -0.0001995
  14  -2.7232378   2.7231939  -0.0001994
  14   2.7231746  -2.7232185  -0.0001992
  14   2.7231756   2.7231949  -0.0001991
  14  -1.1784159  -1.1782055  -4.2441698
  14  -1.1784156  -1.1782054   1.2022435
  14  -1.1784149   4.2682079  -4.2441697
  14  -1.1784146   4.2682080   1.2022436
  14   4.2679975  -1.1782045  -4.2441695
  14   4.2679978  -1.1782044   1.2022438
  14   4.2679985   4.2682089  -4.2441694
  14   4.2679988   4.2682090   1.2022439
ATOMS    9
  32  -0.0000003  -0.0000063  -0.0000103
  14  -4.2591303  -4.2592639  -4.2565848
  14  -4.2591300  -4.2592638   1.1898284
  14  -4.2591293   1.1871495  -4.2565848
  14  -4.2591290   1.1871496   1.1898285
  14   1.1872830  -4.2592629  -4.2565845
  14   1.1872834  -4.2592628   1.1898287
  14   1.1872840   1.1871505  -4.2565845
  14   1.1872844   1.1871506   1.1898288
  14  -0.0000222  -2.7232268  -2.7232335
  14  -0.0000218  -2.7232267   2.7231797
  14  -0.0000212   2.7231866  -2.7232335
  14  -0.0000208   2.7231867   2.7231798
  14  -4.2591328  -1.1870807  -1.1896239
  14  -4.2591324  -1.1870806   4.2567894
  14  -4.2591317   4.2593327  -1.1896238
  14  -4.2591314   4.2593328   4.2567895
  14   1.1872806  -1.1870796  -1.1896236
  14   1.1872809  -1.1870796   4.2567897
  14   1.1872816   4.2593337  -1.1896235
  14   1.1872819   4.2593338   4.2567898
  14  -2.7231890  -0.0000562  -2.7232312
  14  -2.7231887  -0.0000562   2.7231820
  14   2.7232244  -0.0000552  -2.7232309
  14   2.7232247  -0.0000552   2.7231823
  14  -1.1872823  -4.2592658  -1.1896914
  14  -1.1872820  -4.2592658   4.2567219
  14  -1.1872813   1.1871476  -1.1896913
  14  -1.1872810   1.1871476   4.2567220
  14   4.2591310  -4.2592648  -1.1896911
  14   4.2591313  -4.2592648   4.2567222
  14   4.2591320   1.1871486  -1.1896910
  14   4.2591324   1.1871486   4.2567223
  14  -2.7232374  -2.7232190  -0.0001908
  14  -2.7232364   2.7231944  -0.0001907
  14   2.7231759  -2.7232180  -0.0001905
  14   2.7231769   2.7231954  -0.0001904
  14  -1.1872837  -1.1870825  -4.2354182
  14  -1.1872834  -1.1870824   1.2109951
  14  -1.1872827   4.2593309  -4.2354181
  14  -1.1872824   4.2593310   1.2109951
  14   4.2591297  -1.1870815  -4.2354179
  14   4.2591300  -1.1870814   1.2109954
  14   4.2591307   4.2593319  -4.2354178
  14   4.2591310   4.2593320   1.2109955
ATOMS   10
  32  -0.0000003  -0.0000057  -0.0000094
  14  -4.2417822  -4.2419038  -4.2394642
  14  -4.2417819  -4.2419037   1.2069491
  14  -4.2417812   1.2045096  -4.2394641
  14  -4.2417809   1.2045097   1.2069492
  14   1.2046312  -4.2419028  -4.2394639
  14   1.2046315  -4.2419027   1.2069494
  14   1.2046322   1.2045106  -4.2394638
  14   1.2046325   1.2045107   1.2069495
  14  -0.0000202  -2.7232250  -2.7232311
  14  -0.0000199  -2.7232249   2.7231822
  14  -0.0000192   2.7231884  -2.7232310
  14  -0.0000189   2.7231885   2.7231822
  14  -4.2417846  -1.2044468  -1.2067625
  14  -4.2417843  -1.2044467   4.2396508
  14  -4.2417836   4.2419666  -1.2067624
  14  -4.2417833   4.2419667   4.2396508
  14   1.2046288  -1.2044457  -1.2067622
  14   1.2046291  -1.2044457   4.2396511
  14   1.2046298   4.2419676  -1.2067621
  14   1.2046301   4.2419677   4.2396511
  14  -2.7231905  -0.0000513  -2.7232290
  14  -2.7231902  -0.0000512   2.7231843
  14   2.7232228  -0.0000503  -2.7232287
  14   2.7232231  -0.0000502   2.7231846
  14  -1.2046305  -4.2419057  -1.2068240
  14  -1.2046302  -4.2419056   4.2395893
  14  -1.2046295   1.2045077  -1.2068239
  14  -1.2046292   1.2045077   4.2395893
  14   4.2417829  -4.2419047  -1.2068237
  14   4.2417832  -4.2419046   4.2395896
  14   4.2417839   1.2045087  -1.2068236
  14   4.2417842   1.2045087   4.2395897
  14  -2.7232347  -2.7232179  -0.0001739
  14  -2.7232337   2.7231955  -0.0001738
  14   2.7231787  -2.7232169  -0.0001736
  14   2.7231797   2.7231965  -0.0001735
  14  -1.2046319  -1.2044486  -4.2182975
  14  -1.2046316  -1.2044485   1.2281157
  14  -1.2046309   4.2419648  -4.2182975
  14  -1.2046305   4.2419649   1.2281158
  14   4.2417815  -1.2044476  -4.2182972
  14   4.2417818  -1.2044475   1.2281161
  14   4.2417825   4.2419658  -4.2182971
  14   4.2417828   4.2419659   1.2281161
ATOMS   11
  32  -0.0000004  -0.0000048  -0.0000082
  14  -4.2167120  -4.2168163  -4.2147227
  14  -4.2167116  -4.2168162   1.2316906
  14  -4.2167110   1.2295971  -4.2147226
  14  -4.2167106   1.2295972   1.2316907
  14   1.2297014  -4.2168153  -4.2147224
  14   1.2297017  -4.2168152   1.2316909
  14   1.2297024   1.2295981  -4.2147223
  14   1.2297027   1.2295982   1.2316910
  14  -0.0000175  -2.7232224  -2.7232275
  14  -0.0000172  -2.7232223   2.7231857
  14  -0.0000165   2.7231910  -2.7232275
  14  -0.0000162   2.7231911   2.7231858
  14  -4.2167144  -1.2295429  -1.2315300
  14  -4.2167141  -1.2295429   4.2148833
  14  -4.2167134   4.2168705  -1.2315299
  14  -4.2167131   4.2168705   4.2148834
  14   1.2296990  -1.2295419  -1.2315296
  14   1.2296993  -1.2295419   4.2148836
  14   1.2297000   4.2168715  -1.2315296
  14   1.2297003   4.2168715   4.2148837
  14  -2.7231928  -0.0000442  -2.7232258
  14  -2.7231925  -0.0000441   2.7231875
  14   2.7232205  -0.0000432  -2.7232255
  14   2.7232209  -0.0000431   2.7231878
  14  -1.2297007  -4.2168182  -1.2315828
  14  -1.2297004  -4.2168181   4.2148305
  14  -1.2296997   1.2295952  -1.2315827
  14  -1.2296994   1.2295953   4.2148305
  14   4.2167127  -4.2168172  -1.2315825
  14   4.2167130  -4.2168171   4.2148308
  14   4.2167137   1.2295962  -1.2315824
  14   4.2167140   1.2295963   4.2148309
  14  -2.7232308  -2.7232163  -0.0001494
  14  -2.7232298   2.7231970  -0.0001493
  14   2.7231826  -2.7232153  -0.0001491
  14   2.7231836   2.7231980  -0.0001490
  14  -1.2297021  -1.2295448  -4.1935560
  14  -1.2297018  -1.2295447   1.2528572
  14  -1.2297011   4.2168686  -4.1935560
  14  -1.2297008   4.2168687   1.2528573
  14   4.2167113  -1.2295438  -4.1935557
  14   4.2167116  -1.2295437   1.2528576
  14   4.2167123   4.2168696  -4.1935556
  14   4.2167126   4.2168697   1.2528576
ATOMS   12
  32  -0.0000004  -0.0000037  -0.0000066
  14  -4.1850153  -4.1850978  -4.1834417
  14  -4.1850150  -4.1850977   1.2629716
  14  -4.1850143   1.2613156  -4.1834416
  14  -4.1850140   1.2613157   1.2629717
  14   1.2613981  -4.1850968  -4.1834414
  14   1.2613984  -4.1850967   1.2629719
  14   1.2613991   1.2613166  -4.1834413
  14   1.2613994   1.2613167   1.2629720
  14  -0.0000140  -2.7232191  -2.7232231
  14  -0.0000137  -2.7232190   2.7231902
  14  -0.0000130   2.7231943  -2.7232230
  14  -0.0000127   2.7231944   2.7231903
  14  -4.1850177  -1.2612724  -1.2628438
  14  -4.1850174  -1.2612723   4.1835695
  14  -4.1850167   4.1851410  -1.2628437
  14  -4.1850164   4.1851411   4.1835696
  14   1.2613956  -1.2612714  -1.2628435
  14   1.2613959  -1.2612713   4.1835698
  14   1.2613966   4.1851420  -1.2628434
  14   1.2613969   4.1851421   4.1835699
  14  -2.7231957  -0.0000351  -2.7232217
  14  -2.7231954  -0.0000350   2.7231916
  14   2.7232177  -0.0000341  -2.7232214
  14   2.7232180  -0.0000340   2.7231919
  14  -1.2613973  -4.1850997  -1.2628857
  14  -1.2613970  -4.1850996   4.1835276
  14  -1.2613963   1.2613137  -1.2628856
  14  -1.2613960   1.2613138   4.1835277
  14   4.1850160  -4.1850987  -1.2628854
  14   4.1850163  -4.1850986   4.1835279
  14   4.1850170   1.2613147  -1.2628853
  14   4.1850173   1.2613148   4.1835280
  14  -2.7232259  -2.7232144  -0.0001184
  14  -2.7232249   2.7231990  -0.0001184
  14   2.7231875  -2.7232134  -0.0001181
  14   2.7231885   2.7232000  -0.0001181
  14  -1.2613987  -1.2612742  -4.1622750
  14  -1.2613984  -1.2612742   1.2841383
  14  -1.2613977   4.1851392  -4.1622749
  14  -1.2613974   4.1851392   1.2841383
  14   4.1850146  -1.2612732  -4.1622747
  14   4.1850150  -1.2612732   1.2841386
  14   4.1850156   4.1851402  -4.1622746
  14   4.1850160   4.1851402   1.2841386
ATOMS   13
  32  -0.0000005  -0.0000024  -0.0000047
  14  -4.1480776  -4.1481345  -4.1469883
  14  -4.1480773  -4.1481344   1.2994250
  14  -4.1480766   1.2982789  -4.1469882
  14  -4.1480763   1.2982789   1.2994251
  14   1.2983358  -4.1481335  -4.1469880
  14   1.2983361  -4.1481334   1.2994253
  14   1.2983368   1.2982799  -4.1469879
  14   1.2983371   1.2982799   1.2994254
  14  -0.0000099  -2.7232152  -2.7232178
  14  -0.0000096  -2.7232151   2.7231954
  14  -0.0000089   2.7231982  -2.7232178
  14  -0.0000086   2.7231983   2.7231955
  14  -4.1480800  -1.2982484  -1.2993354
  14  -4.1480797  -1.2982483   4.1470779
  14  -4.1480790   4.1481650  -1.2993353
  14  -4.1480787   4.1481651   4.1470779
  14   1.2983334  -1.2982473  -1.2993351
  14   1.2983337  -1.2982473   4.1470782
  14   1.2983344   4.1481660  -1.2993350
  14   1.2983347   4.1481661   4.1470782
  14  -2.7231991  -0.0000246  -2.7232169
  14  -2.7231988  -0.0000245   2.7231963
  14   2.7232143  -0.0000236  -2.7232166
  14   2.7232146  -0.0000235   2.7231966
  14  -1.2983351  -4.1481365  -1.2993646
  14  -1.2983348  -4.1481364   4.1470487
  14  -1.2983341   1.2982769  -1.2993645
  14  -1.2983338   1.2982770   4.1470488
  14   4.1480783  -4.1481354  -1.2993643
  14   4.1480786  -4.1481354   4.1470490
  14   4.1480793   1.2982779  -1.2993642
  14   4.1480796   1.2982780   4.1470491
  14  -2.7232201  -2.7232121  -0.0000824
  14  -2.7232191   2.7232013  -0.0000823
  14   2.7231933  -2.7232111  -0.0000821
  14   2.7231943   2.7232023  -0.0000820
  14  -1.2983365  -1.2982502  -4.1258216
  14  -1.2983362  -1.2982501   1.3205916
  14  -1.2983355   4.1481632  -4.1258216
  14  -1.2983352   4.1481633   1.3205917
  14   4.1480769  -1.2982492  -4.1258213
  14   4.1480772  -1.2982491   1.3205920
  14   4.1480779   4.1481642  -4.1258212
  14   4.1480782   4.1481643   1.3205920
ATOMS   14
  32  -0.0000006  -0.0000011  -0.0000027
  14  -4.1075131  -4.1075420  -4.1069557
  14  -4.1075128  -4.1075420   1.3394576
  14  -4.1075121   1.3388713  -4.1069556
  14  -4.1075118   1.3388714   1.3394576
  14   1.3389003  -4.1075410  -4.1069554
  14   1.3389006  -4.1075410   1.3394579
  14   1.3389013   1.3388724  -4.1069553
  14   1.3389016   1.3388724   1.3394580
  14  -0.0000054  -2.7232110  -2.7232121
  14  -0.0000051  -2.7232109   2.7232012
  14  -0.0000044   2.7232024  -2.7232120
  14  -0.0000041   2.7232025   2.7232012
  14  -4.1075155  -1.3388548  -1.3394100
  14  -4.1075152  -1.3388548   4.1070033
  14  -4.1075145   4.1075586  -1.3394099
  14  -4.1075142   4.1075586   4.1070034
  14   1.3388979  -1.3388538  -1.3394097
  14   1.3388982  -1.3388538   4.1070036
  14   1.3388989   4.1075596  -1.3394096
  14   1.3388992   4.1075596   4.1070037
  14  -2.7232028  -0.0000130  -2.7232117
  14  -2.7232025  -0.0000130   2.7232016
  14   2.7232106  -0.0000120  -2.7232114
  14   2.7232109  -0.0000120   2.7232019
  14  -1.3388996  -4.1075440  -1.3394252
  14  -1.3388993  -4.1075439   4.1069881
  14  -1.3388986   1.3388694  -1.3394251
  14  -1.3388983   1.3388695   4.1069882
  14   4.1075138  -4.1075430  -1.3394248
  14   4.1075141  -4.1075429   4.1069884
  14   4.1075148   1.3388704  -1.3394248
  14   4.1075151   1.3388705   4.1069885
  14  -2.7232138  -2.7232096  -0.0000428
  14  -2.7232128   2.7232038  -0.0000427
  14   2.7231996  -2.7232086  -0.0000425
  14   2.7232006   2.7232048  -0.0000424
  14  -1.3389009  -1.3388567  -4.0857890
  14  -1.3389006  -1.3388566   1.3606242
  14  -1.3388999   4.1075567  -4.0857890
  14  -1.3388996   4.1075568   1.3606243
  14   4.1075124  -1.3388557  -4.0857887
  14   4.1075127  -1.3388556   1.3606245
  14   4.1075134   4.1075577  -4.0857887
  14   4.1075137   4.1075578   1.3606246
ATOMS   15
  32  -0.0000007   0.0000004  -0.0000005
  14  -4.0650947  -4.0650944  -4.0650935
  14  -4.0650944  -4.0650943   1.3813197
  14  -4.0650937   1.3813190  -4.0650935
  14  -4.0650934   1.3813191   1.3813198
  14   1.3813187  -4.0650934  -4.0650932
  14   1.3813190  -4.0650933   1.3813200
  14   1.3813197   1.3813200  -4.0650932
  14   1.3813200   1.3813201   1.3813201
  14  -0.0000008  -2.7232066  -2.7232061
  14  -0.0000005  -2.7232065   2.7232072
  14   0.0000002   2.7232068  -2.7232060
  14   0.0000005   2.7232069   2.7232072
  14  -4.0650971  -1.3813171  -1.3813161
  14  -4.0650968  -1.3813170   4.0650972
  14  -4.0650961   4.0650963  -1.3813160
  14  -4.0650958   4.0650964   4.0650973
  14   1.3813162  -1.3813161  -1.3813157
  14   1.3813165  -1.3813160   4.0650975
  14   1.3813172   4.0650973  -1.3813157
  14   1.3813175   4.0650974   4.0650976
  14  -2.7232067  -0.0000010  -2.7232062
  14  -2.7232064  -0.0000009   2.7232070
  14   2.7232067   0.0000000  -2.7232059
  14   2.7232070   0.0000001   2.7232073
  14  -1.3813179  -4.0650963  -1.3813166
  14  -1.3813176  -4.0650962   4.0650967
  14  -1.3813169   1.3813171  -1.3813165
  14  -1.3813166   1.3813171   4.0650968
  14   4.0650954  -4.0650953  -1.3813163
  14   4.0650957  -4.0650952   4.0650970
  14   4.0650964   1.3813181  -1.3813162
  14   4.0650968   1.3813181   4.0650971
  14  -2.7232071  -2.7232070  -0.0000013
  14  -2.7232061   2.7232064  -0.0000013
  14   2.7232063  -2.7232060  -0.0000010
  14   2.7232073   2.7232074  -0.0000010
  14  -1.3813193  -1.3813190  -4.0439269
  14  -1.3813190  -1.3813189   1.4024864
  14  -1.3813183   4.0650944  -4.0439268
  14  -1.3813180   4.0650945   1.4024865
  14   4.0650940  -1.3813180  -4.0439266
  14   4.0650944  -1.3813179   1.4024867
  14   4.0650951   4.0650954  -4.0439265
  14   4.0650954   4.0650955   1.4024868
ATOMS   16
  32  -0.0000008   0.0000019   0.0000016
  14  -4.0226764  -4.0226468  -4.0232314
  14  -4.0226760  -4.0226467   1.4231819
  14  -4.0226754   1.4237666  -4.0232313
  14  -4.0226750   1.4237667   1.4231820
  14   1.4237370  -4.0226458  -4.0232311
  14   1.4237373  -4.0226457   1.4231822
  14   1.4237380   1.4237676  -4.0232310
  14   1.4237383   1.4237677   1.4231823
  14   0.0000039  -2.7232021  -2.7232001
  14   0.0000042  -2.7232021   2.7232132
  14   0.0000049   2.7232113  -2.7232000
  14   0.0000052   2.7232113   2.7232132
  14  -4.0226788  -1.4237794  -1.4232221
  14  -4.0226785  -1.4237793   4.0231911
  14  -4.0226778   4.0226340  -1.4232221
  14  -4.0226775   4.0226341   4.0231912
  14   1.4237346  -1.4237784  -1.4232218
  14   1.4237349  -1.4237783   4.0231914
  14   1.4237356   4.0226350  -1.4232217
  14   1.4237359   4.0226351   4.0231915
  14  -2.7232105   0.0000111  -2.7232008
  14  -2.7232102   0.0000112   2.7232125
  14   2.7232028   0.0000121  -2.7232005
  14   2.7232031   0.0000122   2.7232128
  14  -1.4237363  -4.0226487  -1.4232080
  14  -1.4237360  -4.0226486   4.0232052
  14  -1.4237353   1.4237647  -1.4232079
  14  -1.4237350   1.4237648   4.0232053
  14   4.0226771  -4.0226477  -1.4232077
  14   4.0226774  -4.0226476   4.0232056
  14   4.0226781   1.4237657  -1.4232076
  14   4.0226784   1.4237658   4.0232056
  14  -2.7232005  -2.7232044   0.0000401
  14  -2.7231995   2.7232090   0.0000402
  14   2.7232129  -2.7232034   0.0000404
  14   2.7232139   2.7232100   0.0000405
  14  -1.4237377  -1.4237812  -4.0020647
  14  -1.4237374  -1.4237812   1.4443486
  14  -1.4237367   4.0226321  -4.0020646
  14  -1.4237364   4.0226322   1.4443486
  14   4.0226757  -1.4237802  -4.0020644
  14   4.0226760  -1.4237802   1.4443489
  14   4.0226767   4.0226331  -4.0020643
  14   4.0226770   4.0226332   1.4443489
ATOMS   17
  32  -0.0000009   0.0000032   0.0000037
  14  -3.9821119  -3.9820543  -3.9831988
  14  -3.9821116  -3.9820542   1.4632145
  14  -3.9821109   1.4643591  -3.9831987
  14  -3.9821106   1.4643592   1.4632146