# --- AXSF block for ---- iev =    11  freq =     341.533950 cm-1
ANIMSTEPS   30
ATOMS    1
  32  -0.0466822   0.0383832  -0.0080129
  14  -4.0624851  -4.0526035  -4.0579949
  14  -4.0624848  -4.0526034   1.3884183
  14  -4.0624841   1.3938099  -4.0579949
  14  -4.0624838   1.3938100   1.3884184
  14   1.3839283  -4.0526025  -4.0579946
  14   1.3839286  -4.0526024   1.3884186
  14   1.3839293   1.3938109  -4.0579945
  14   1.3839296   1.3938110   1.3884187
  14  -0.0444233  -2.7621779  -2.7150571
  14  -0.0444230  -2.7621779   2.7313562
  14  -0.0444223   2.6842355  -2.7150570
  14  -0.0444220   2.6842355   2.7313563
  14  -4.0325979  -1.4147854  -1.4201836
  14  -4.0325976  -1.4147854   4.0262297
  14  -4.0325969   4.0316280  -1.4201835
  14  -4.0325966   4.0316280   4.0262297
  14   1.4138155  -1.4147844  -1.4201833
  14   1.4138158  -1.4147844   4.0262300
  14   1.4138165   4.0316290  -1.4201832
  14   1.4138168   4.0316290   4.0262300
  14  -2.6757903   0.0365131  -2.7150711
  14  -2.6757900   0.0365132   2.7313422
  14   2.7706230   0.0365141  -2.7150707
  14   2.7706234   0.0365142   2.7313425
  14  -1.3409102  -4.1064558  -1.3364268
  14  -1.3409099  -4.1064558   4.1099864
  14  -1.3409092   1.3399576  -1.3364267
  14  -1.3409089   1.3399576   4.1099865
  14   4.1055032  -4.1064548  -1.3364265
  14   4.1055035  -4.1064548   4.1099868
  14   4.1055042   1.3399586  -1.3364264
  14   4.1055045   1.3399586   4.1099868
  14  -2.6757908  -2.7621957  -0.0076329
  14  -2.6757898   2.6842177  -0.0076329
  14   2.7706226  -2.7621947  -0.0076326
  14   2.7706236   2.6842187  -0.0076326
  14  -1.3865957  -1.3767262  -4.0450000
  14  -1.3865954  -1.3767261   1.4014133
  14  -1.3865947   4.0696872  -4.0449999
  14  -1.3865944   4.0696873   1.4014134
  14   4.0598177  -1.3767252  -4.0449997
  14   4.0598180  -1.3767251   1.4014136
  14   4.0598187   4.0696882  -4.0449996
  14   4.0598190   4.0696883   1.4014137
ATOMS    2
  32  -0.0913234   0.0750884  -0.0156751
  14  -4.0599895  -4.0406585  -4.0512066
  14  -4.0599892  -4.0406584   1.3952067
  14  -4.0599885   1.4057549  -4.0512065
  14  -4.0599882   1.4057550   1.3952068
  14   1.3864239  -4.0406575  -4.0512063
  14   1.3864242  -4.0406574   1.3952070
  14   1.3864249   1.4057559  -4.0512062
  14   1.3864252   1.4057560   1.3952071
  14  -0.0869043  -2.7994461  -2.7072642
  14  -0.0869040  -2.7994460   2.7391491
  14  -0.0869033   2.6469673  -2.7072641
  14  -0.0869030   2.6469674   2.7391491
  14  -4.0015191  -1.4467910  -1.4573525
  14  -4.0015188  -1.4467909   3.9890608
  14  -4.0015181   3.9996224  -1.4573524
  14  -4.0015178   3.9996224   3.9890609
  14   1.4448943  -1.4467900  -1.4573521
  14   1.4448946  -1.4467899   3.9890611
  14   1.4448953   3.9996234  -1.4573521
  14   1.4448956   3.9996234   3.9890612
  14  -2.6304463   0.0714313  -2.7072914
  14  -2.6304460   0.0714314   2.7391219
  14   2.8159671   0.0714323  -2.7072911
  14   2.8159674   0.0714324   2.7391222
  14  -1.3022685  -4.1460077  -1.2934990
  14  -1.3022682  -4.1460076   4.1529143
  14  -1.3022675   1.3004057  -1.2934989
  14  -1.3022672   1.3004057   4.1529144
  14   4.1441449  -4.1460067  -1.2934986
  14   4.1441452  -4.1460066   4.1529146
  14   4.1441459   1.3004067  -1.2934986
  14   4.1441462   1.3004067   4.1529147
  14  -2.6304468  -2.7994804  -0.0149310
  14  -2.6304458   2.6469330  -0.0149309
  14   2.8159666  -2.7994794  -0.0149307
  14   2.8159676   2.6469340  -0.0149306
  14  -1.3916414  -1.3723341  -4.0460262
  14  -1.3916411  -1.3723340   1.4003871
  14  -1.3916404   4.0740793  -4.0460261
  14  -1.3916401   4.0740794   1.4003872
  14   4.0547719  -1.3723331  -4.0460259
  14   4.0547722  -1.3723330   1.4003874
  14   4.0547729   4.0740803  -4.0460258
  14   4.0547732   4.0740804   1.4003875
ATOMS    3
  32  -0.1319735   0.1085120  -0.0226522
  14  -4.0577171  -4.0297814  -4.0450251
  14  -4.0577168  -4.0297814   1.4013881
  14  -4.0577161   1.4166319  -4.0450251
  14  -4.0577158   1.4166320   1.4013882
  14   1.3886963  -4.0297804  -4.0450248
  14   1.3886966  -4.0297804   1.4013884
  14   1.3886973   1.4166330  -4.0450247
  14   1.3886976   1.4166330   1.4013885
  14  -0.1255873  -2.8333822  -2.7001681
  14  -0.1255870  -2.8333821   2.7462452
  14  -0.1255863   2.6130312  -2.7001680
  14  -0.1255860   2.6130313   2.7462453
  14  -3.9732189  -1.4759351  -1.4911982
  14  -3.9732186  -1.4759350   3.9552151
  14  -3.9732179   3.9704783  -1.4911981
  14  -3.9732176   3.9704784   3.9552152
  14   1.4731945  -1.4759341  -1.4911978
  14   1.4731948  -1.4759340   3.9552154
  14   1.4731955   3.9704793  -1.4911978
  14   1.4731958   3.9704794   3.9552155
  14  -2.5891564   0.1032276  -2.7002073
  14  -2.5891561   0.1032276   2.7462059
  14   2.8572570   0.1032286  -2.7002070
  14   2.8572573   0.1032286   2.7462063
  14  -1.2670817  -4.1820234  -1.2544091
  14  -1.2670813  -4.1820233   4.1920041
  14  -1.2670807   1.2643900  -1.2544091
  14  -1.2670803   1.2643901   4.1920042
  14   4.1793317  -4.1820224  -1.2544088
  14   4.1793320  -4.1820223   4.1920044
  14   4.1793327   1.2643910  -1.2544087
  14   4.1793330   1.2643911   4.1920045
  14  -2.5891568  -2.8334316  -0.0215766
  14  -2.5891558   2.6129818  -0.0215765
  14   2.8572565  -2.8334306  -0.0215763
  14   2.8572575   2.6129828  -0.0215762
  14  -1.3962361  -1.3683347  -4.0469606
  14  -1.3962358  -1.3683346   1.3994526
  14  -1.3962351   4.0780787  -4.0469606
  14  -1.3962348   4.0780788   1.3994527
  14   4.0501773  -1.3683337  -4.0469603
  14   4.0501776  -1.3683336   1.3994530
  14   4.0501783   4.0780797  -4.0469602
  14   4.0501786   4.0780798   1.3994530
ATOMS    4
  32  -0.1668556   0.1371931  -0.0286394
  14  -4.0557671  -4.0204478  -4.0397208
  14  -4.0557667  -4.0204477   1.4066925
  14  -4.0557661   1.4259656  -4.0397207
  14  -4.0557657   1.4259657   1.4066926
  14   1.3906463  -4.0204468  -4.0397205
  14   1.3906466  -4.0204467   1.4066928
  14   1.3906473   1.4259666  -4.0397204
  14   1.3906476   1.4259667   1.4066929
  14  -0.1587815  -2.8625031  -2.6940788
  14  -0.1587812  -2.8625030   2.7523345
  14  -0.1587805   2.5839103  -2.6940787
  14  -0.1587802   2.5839104   2.7523346
  14  -3.9489342  -1.5009439  -1.5202415
  14  -3.9489339  -1.5009438   3.9261718
  14  -3.9489332   3.9454695  -1.5202414
  14  -3.9489329   3.9454696   3.9261719
  14   1.4974792  -1.5009429  -1.5202412
  14   1.4974795  -1.5009428   3.9261721
  14   1.4974802   3.9454705  -1.5202411
  14   1.4974805   3.9454706   3.9261722
  14  -2.5537251   0.1305122  -2.6941284
  14  -2.5537248   0.1305123   2.7522849
  14   2.8926883   0.1305132  -2.6941281
  14   2.8926886   0.1305133   2.7522852
  14  -1.2368875  -4.2129288  -1.2208658
  14  -1.2368872  -4.2129287   4.2255475
  14  -1.2368865   1.2334846  -1.2208657
  14  -1.2368862   1.2334847   4.2255476
  14   4.2095259  -4.2129278  -1.2208655
  14   4.2095262  -4.2129277   4.2255478
  14   4.2095269   1.2334856  -1.2208654
  14   4.2095272   1.2334857   4.2255479
  14  -2.5537256  -2.8625654  -0.0272792
  14  -2.5537246   2.5838480  -0.0272791
  14   2.8926878  -2.8625644  -0.0272789
  14   2.8926888   2.5838490  -0.0272788
  14  -1.4001788  -1.3649028  -4.0477625
  14  -1.4001785  -1.3649027   1.3986508
  14  -1.4001778   4.0815106  -4.0477624
  14  -1.4001775   4.0815107   1.3986509
  14   4.0462346  -1.3649018  -4.0477622
  14   4.0462349  -1.3649017   1.3986511
  14   4.0462356   4.0815116  -4.0477621
  14   4.0462359   4.0815117   1.3986512
ATOMS    5
  32  -0.1944455   0.1598782  -0.0333749
  14  -4.0542247  -4.0130653  -4.0355253
  14  -4.0542244  -4.0130653   1.4108879
  14  -4.0542237   1.4333481  -4.0355253
  14  -4.0542234   1.4333481   1.4108880
  14   1.3921887  -4.0130643  -4.0355250
  14   1.3921890  -4.0130643   1.4108882
  14   1.3921897   1.4333491  -4.0355250
  14   1.3921900   1.4333491   1.4108883
  14  -0.1850362  -2.8855361  -2.6892625
  14  -0.1850359  -2.8855360   2.7571508
  14  -0.1850352   2.5608773  -2.6892624
  14  -0.1850349   2.5608774   2.7571508
  14  -3.9297264  -1.5207244  -1.5432131
  14  -3.9297261  -1.5207244   3.9032002
  14  -3.9297254   3.9256890  -1.5432130
  14  -3.9297251   3.9256890   3.9032003
  14   1.5166869  -1.5207234  -1.5432128
  14   1.5166872  -1.5207234   3.9032005
  14   1.5166879   3.9256900  -1.5432127
  14   1.5166882   3.9256900   3.9032006
  14  -2.5257010   0.1520929  -2.6893203
  14  -2.5257006   0.1520930   2.7570930
  14   2.9207124   0.1520939  -2.6893200
  14   2.9207127   0.1520940   2.7570933
  14  -1.2130056  -4.2373732  -1.1943349
  14  -1.2130053  -4.2373731   4.2520784
  14  -1.2130046   1.2090402  -1.1943348
  14  -1.2130043   1.2090403   4.2520785
  14   4.2334078  -4.2373722  -1.1943346
  14   4.2334081  -4.2373721   4.2520787
  14   4.2334088   1.2090412  -1.1943345
  14   4.2334091   1.2090413   4.2520788
  14  -2.5257014  -2.8856086  -0.0317897
  14  -2.5257004   2.5608048  -0.0317896
  14   2.9207120  -2.8856076  -0.0317894
  14   2.9207130   2.5608058  -0.0317893
  14  -1.4032972  -1.3621883  -4.0483967
  14  -1.4032969  -1.3621882   1.3980166
  14  -1.4032962   4.0842251  -4.0483966
  14  -1.4032959   4.0842252   1.3980166
  14   4.0431161  -1.3621873  -4.0483964
  14   4.0431164  -1.3621872   1.3980169
  14   4.0431171   4.0842261  -4.0483963
  14   4.0431174   4.0842262   1.3980169
ATOMS    6
  32  -0.2135371   0.1755759  -0.0366518
  14  -4.0531574  -4.0079568  -4.0326222
  14  -4.0531571  -4.0079568   1.4137911
  14  -4.0531564   1.4384565  -4.0326221
  14  -4.0531561   1.4384566   1.4137912
  14   1.3932560  -4.0079558  -4.0326219
  14   1.3932563  -4.0079558   1.4137914
  14   1.3932570   1.4384576  -4.0326218
  14   1.3932573   1.4384576   1.4137915
  14  -0.2032040  -2.9014745  -2.6859297
  14  -0.2032037  -2.9014744   2.7604835
  14  -0.2032030   2.5449389  -2.6859297
  14  -0.2032027   2.5449390   2.7604836
  14  -3.9164350  -1.5344122  -1.5591090
  14  -3.9164347  -1.5344121   3.8873043
  14  -3.9164340   3.9120012  -1.5591089
  14  -3.9164337   3.9120013   3.8873043
  14   1.5299784  -1.5344112  -1.5591087
  14   1.5299787  -1.5344111   3.8873046
  14   1.5299794   3.9120022  -1.5591086
  14   1.5299797   3.9120023   3.8873046
  14  -2.5063088   0.1670263  -2.6859932
  14  -2.5063084   0.1670264   2.7604201
  14   2.9401046   0.1670273  -2.6859929
  14   2.9401049   0.1670274   2.7604204
  14  -1.1964798  -4.2542883  -1.1759760
  14  -1.1964794  -4.2542882   4.2704373
  14  -1.1964788   1.1921251  -1.1759759
  14  -1.1964784   1.1921252   4.2704373
  14   4.2499336  -4.2542873  -1.1759757
  14   4.2499339  -4.2542872   4.2704376
  14   4.2499346   1.1921261  -1.1759756
  14   4.2499349   1.1921262   4.2704376
  14  -2.5063092  -2.9015541  -0.0349108
  14  -2.5063082   2.5448593  -0.0349107
  14   2.9401042  -2.9015531  -0.0349105
  14   2.9401052   2.5448603  -0.0349104
  14  -1.4054551  -1.3603099  -4.0488356
  14  -1.4054548  -1.3603099   1.3975777
  14  -1.4054541   4.0861034  -4.0488355
  14  -1.4054538   4.0861035   1.3975778
  14   4.0409582  -1.3603089  -4.0488353
  14   4.0409585  -1.3603089   1.3975780
  14   4.0409592   4.0861044  -4.0488352
  14   4.0409595   4.0861045   1.3975781
ATOMS    7
  32  -0.2232962   0.1836000  -0.0383268
  14  -4.0526119  -4.0053455  -4.0311382
  14  -4.0526116  -4.0053454   1.4152751
  14  -4.0526109   1.4410679  -4.0311381
  14  -4.0526106   1.4410679   1.4152752
  14   1.3938015  -4.0053445  -4.0311378
  14   1.3938018  -4.0053444   1.4152754
  14   1.3938025   1.4410689  -4.0311378
  14   1.3938028   1.4410689   1.4152755
  14  -0.2124909  -2.9096217  -2.6842261
  14  -0.2124905  -2.9096216   2.7621871
  14  -0.2124899   2.5367917  -2.6842261
  14  -0.2124895   2.5367918   2.7621872
  14  -3.9096408  -1.5414090  -1.5672346
  14  -3.9096405  -1.5414089   3.8791787
  14  -3.9096398   3.9050044  -1.5672345
  14  -3.9096395   3.9050045   3.8791788
  14   1.5367726  -1.5414080  -1.5672342
  14   1.5367729  -1.5414079   3.8791790
  14   1.5367736   3.9050054  -1.5672342
  14   1.5367739   3.9050055   3.8791791
  14  -2.4963960   0.1746598  -2.6842925
  14  -2.4963957   0.1746599   2.7621208
  14   2.9500173   0.1746608  -2.6842922
  14   2.9500176   0.1746609   2.7621211
  14  -1.1880322  -4.2629348  -1.1665915
  14  -1.1880319  -4.2629347   4.2798218
  14  -1.1880312   1.1834786  -1.1665914
  14  -1.1880309   1.1834787   4.2798219
  14   4.2583811  -4.2629338  -1.1665912
  14   4.2583814  -4.2629337   4.2798221
  14   4.2583821   1.1834796  -1.1665911
  14   4.2583824   1.1834797   4.2798222
  14  -2.4963965  -2.9097049  -0.0365063
  14  -2.4963955   2.5367085  -0.0365062
  14   2.9500169  -2.9097039  -0.0365060
  14   2.9500179   2.5367095  -0.0365059
  14  -1.4065582  -1.3593498  -4.0490599
  14  -1.4065579  -1.3593497   1.3973534
  14  -1.4065572   4.0870636  -4.0490598
  14  -1.4065569   4.0870637   1.3973534
  14   4.0398552  -1.3593488  -4.0490596
  14   4.0398555  -1.3593487   1.3973537
  14   4.0398562   4.0870646  -4.0490595
  14   4.0398565   4.0870647   1.3973537
ATOMS    8
  32  -0.2232962   0.1836000  -0.0383268
  14  -4.0526119  -4.0053455  -4.0311382
  14  -4.0526116  -4.0053454   1.4152751
  14  -4.0526109   1.4410679  -4.0311381
  14  -4.0526106   1.4410679   1.4152752
  14   1.3938015  -4.0053445  -4.0311378
  14   1.3938018  -4.0053444   1.4152754
  14   1.3938025   1.4410689  -4.0311378
  14   1.3938028   1.4410689   1.4152755
  14  -0.2124909  -2.9096217  -2.6842261
  14  -0.2124905  -2.9096216   2.7621871
  14  -0.2124899   2.5367917  -2.6842261
  14  -0.2124895   2.5367918   2.7621872
  14  -3.9096408  -1.5414090  -1.5672346
  14  -3.9096405  -1.5414089   3.8791787
  14  -3.9096398   3.9050044  -1.5672345
  14  -3.9096395   3.9050045   3.8791788
  14   1.5367726  -1.5414080  -1.5672342
  14   1.5367729  -1.5414079   3.8791790
  14   1.5367736   3.9050054  -1.5672342
  14   1.5367739   3.9050055   3.8791791
  14  -2.4963960   0.1746598  -2.6842925
  14  -2.4963957   0.1746599   2.7621208
  14   2.9500173   0.1746608  -2.6842922
  14   2.9500176   0.1746609   2.7621211
  14  -1.1880322  -4.2629348  -1.1665915
  14  -1.1880319  -4.2629347   4.2798218
  14  -1.1880312   1.1834786  -1.1665914
  14  -1.1880309   1.1834787   4.2798219
  14   4.2583811  -4.2629338  -1.1665912
  14   4.2583814  -4.2629337   4.2798221
  14   4.2583821   1.1834796  -1.1665911
  14   4.2583824   1.1834797   4.2798222
  14  -2.4963965  -2.9097049  -0.0365063
  14  -2.4963955   2.5367085  -0.0365062
  14   2.9500169  -2.9097039  -0.0365060
  14   2.9500179   2.5367095  -0.0365059
  14  -1.4065582  -1.3593498  -4.0490599
  14  -1.4065579  -1.3593497   1.3973534
  14  -1.4065572   4.0870636  -4.0490598
  14  -1.4065569   4.0870637   1.3973534
  14   4.0398552  -1.3593488  -4.0490596
  14   4.0398555  -1.3593487   1.3973537
  14   4.0398562   4.0870646  -4.0490595
  14   4.0398565   4.0870647   1.3973537
ATOMS    9
  32  -0.2135371   0.1755759  -0.0366518
  14  -4.0531574  -4.0079568  -4.0326222
  14  -4.0531571  -4.0079568   1.4137911
  14  -4.0531564   1.4384565  -4.0326221
  14  -4.0531561   1.4384566   1.4137912
  14   1.3932560  -4.0079558  -4.0326219
  14   1.3932563  -4.0079558   1.4137914
  14   1.3932570   1.4384576  -4.0326218
  14   1.3932573   1.4384576   1.4137915
  14  -0.2032040  -2.9014745  -2.6859297
  14  -0.2032037  -2.9014744   2.7604835
  14  -0.2032030   2.5449389  -2.6859297
  14  -0.2032027   2.5449390   2.7604836
  14  -3.9164350  -1.5344122  -1.5591090
  14  -3.9164347  -1.5344121   3.8873043
  14  -3.9164340   3.9120012  -1.5591089
  14  -3.9164337   3.9120013   3.8873043
  14   1.5299784  -1.5344112  -1.5591087
  14   1.5299787  -1.5344111   3.8873046
  14   1.5299794   3.9120022  -1.5591086
  14   1.5299797   3.9120023   3.8873046
  14  -2.5063088   0.1670263  -2.6859932
  14  -2.5063084   0.1670264   2.7604201
  14   2.9401046   0.1670273  -2.6859929
  14   2.9401049   0.1670274   2.7604204
  14  -1.1964798  -4.2542883  -1.1759760
  14  -1.1964794  -4.2542882   4.2704373
  14  -1.1964788   1.1921251  -1.1759759
  14  -1.1964784   1.1921252   4.2704373
  14   4.2499336  -4.2542873  -1.1759757
  14   4.2499339  -4.2542872   4.2704376
  14   4.2499346   1.1921261  -1.1759756
  14   4.2499349   1.1921262   4.2704376
  14  -2.5063092  -2.9015541  -0.0349108
  14  -2.5063082   2.5448593  -0.0349107
  14   2.9401042  -2.9015531  -0.0349105
  14   2.9401052   2.5448603  -0.0349104
  14  -1.4054551  -1.3603099  -4.0488356
  14  -1.4054548  -1.3603099   1.3975777
  14  -1.4054541   4.0861034  -4.0488355
  14  -1.4054538   4.0861035   1.3975778
  14   4.0409582  -1.3603089  -4.0488353
  14   4.0409585  -1.3603089   1.3975780
  14   4.0409592   4.0861044  -4.0488352
  14   4.0409595   4.0861045   1.3975781
ATOMS   10
  32  -0.1944455   0.1598782  -0.0333749
  14  -4.0542247  -4.0130653  -4.0355253
  14  -4.0542244  -4.0130653   1.4108879
  14  -4.0542237   1.4333481  -4.0355253
  14  -4.0542234   1.4333481   1.4108880
  14   1.3921887  -4.0130643  -4.0355250
  14   1.3921890  -4.0130643   1.4108882
  14   1.3921897   1.4333491  -4.0355250
  14   1.3921900   1.4333491   1.4108883
  14  -0.1850362  -2.8855361  -2.6892625
  14  -0.1850359  -2.8855360   2.7571508
  14  -0.1850352   2.5608773  -2.6892624
  14  -0.1850349   2.5608774   2.7571508
  14  -3.9297264  -1.5207244  -1.5432131
  14  -3.9297261  -1.5207244   3.9032002
  14  -3.9297254   3.9256890  -1.5432130
  14  -3.9297251   3.9256890   3.9032003
  14   1.5166869  -1.5207234  -1.5432128
  14   1.5166872  -1.5207234   3.9032005
  14   1.5166879   3.9256900  -1.5432127
  14   1.5166882   3.9256900   3.9032006
  14  -2.5257010   0.1520929  -2.6893203
  14  -2.5257006   0.1520930   2.7570930
  14   2.9207124   0.1520939  -2.6893200
  14   2.9207127   0.1520940   2.7570933
  14  -1.2130056  -4.2373732  -1.1943349
  14  -1.2130053  -4.2373731   4.2520784
  14  -1.2130046   1.2090402  -1.1943348
  14  -1.2130043   1.2090403   4.2520785
  14   4.2334078  -4.2373722  -1.1943346
  14   4.2334081  -4.2373721   4.2520787
  14   4.2334088   1.2090412  -1.1943345
  14   4.2334091   1.2090413   4.2520788
  14  -2.5257014  -2.8856086  -0.0317897
  14  -2.5257004   2.5608048  -0.0317896
  14   2.9207120  -2.8856076  -0.0317894
  14   2.9207130   2.5608058  -0.0317893
  14  -1.4032972  -1.3621883  -4.0483967
  14  -1.4032969  -1.3621882   1.3980166
  14  -1.4032962   4.0842251  -4.0483966
  14  -1.4032959   4.0842252   1.3980166
  14   4.0431161  -1.3621873  -4.0483964
  14   4.0431164  -1.3621872   1.3980169
  14   4.0431171   4.0842261  -4.0483963
  14   4.0431174   4.0842262   1.3980169
ATOMS   11
  32  -0.1668556   0.1371931  -0.0286394
  14  -4.0557671  -4.0204478  -4.0397208
  14  -4.0557667  -4.0204477   1.4066925
  14  -4.0557661   1.4259656  -4.0397207
  14  -4.0557657   1.4259657   1.4066926
  14   1.3906463  -4.0204468  -4.0397205
  14   1.3906466  -4.0204467   1.4066928
  14   1.3906473   1.4259666  -4.0397204
  14   1.3906476   1.4259667   1.4066929
  14  -0.1587815  -2.8625031  -2.6940788
  14  -0.1587812  -2.8625030   2.7523345
  14  -0.1587805   2.5839103  -2.6940787
  14  -0.1587802   2.5839104   2.7523346
  14  -3.9489342  -1.5009439  -1.5202415
  14  -3.9489339  -1.5009438   3.9261718
  14  -3.9489332   3.9454695  -1.5202414
  14  -3.9489329   3.9454696   3.9261719
  14   1.4974792  -1.5009429  -1.5202412
  14   1.4974795  -1.5009428   3.9261721
  14   1.4974802   3.9454705  -1.5202411
  14   1.4974805   3.9454706   3.9261722
  14  -2.5537251   0.1305122  -2.6941284
  14  -2.5537248   0.1305123   2.7522849
  14   2.8926883   0.1305132  -2.6941281
  14   2.8926886   0.1305133   2.7522852
  14  -1.2368875  -4.2129288  -1.2208658
  14  -1.2368872  -4.2129287   4.2255475
  14  -1.2368865   1.2334846  -1.2208657
  14  -1.2368862   1.2334847   4.2255476
  14   4.2095259  -4.2129278  -1.2208655
  14   4.2095262  -4.2129277   4.2255478
  14   4.2095269   1.2334856  -1.2208654
  14   4.2095272   1.2334857   4.2255479
  14  -2.5537256  -2.8625654  -0.0272792
  14  -2.5537246   2.5838480  -0.0272791
  14   2.8926878  -2.8625644  -0.0272789
  14   2.8926888   2.5838490  -0.0272788
  14  -1.4001788  -1.3649028  -4.0477625
  14  -1.4001785  -1.3649027   1.3986508
  14  -1.4001778   4.0815106  -4.0477624
  14  -1.4001775   4.0815107   1.3986509
  14   4.0462346  -1.3649018  -4.0477622
  14   4.0462349  -1.3649017   1.3986511
  14   4.0462356   4.0815116  -4.0477621
  14   4.0462359   4.0815117   1.3986512
ATOMS   12
  32  -0.1319735   0.1085120  -0.0226522
  14  -4.0577171  -4.0297814  -4.0450251
  14  -4.0577168  -4.0297814   1.4013881
  14  -4.0577161   1.4166319  -4.0450251
  14  -4.0577158   1.4166320   1.4013882
  14   1.3886963  -4.0297804  -4.0450248
  14   1.3886966  -4.0297804   1.4013884
  14   1.3886973   1.4166330  -4.0450247
  14   1.3886976   1.4166330   1.4013885
  14  -0.1255873  -2.8333822  -2.7001681
  14  -0.1255870  -2.8333821   2.7462452
  14  -0.1255863   2.6130312  -2.7001680
  14  -0.1255860   2.6130313   2.7462453
  14  -3.9732189  -1.4759351  -1.4911982
  14  -3.9732186  -1.4759350   3.9552151
  14  -3.9732179   3.9704783  -1.4911981
  14  -3.9732176   3.9704784   3.9552152
  14   1.4731945  -1.4759341  -1.4911978
  14   1.4731948  -1.4759340   3.9552154
  14   1.4731955   3.9704793  -1.4911978
  14   1.4731958   3.9704794   3.9552155
  14  -2.5891564   0.1032276  -2.7002073
  14  -2.5891561   0.1032276   2.7462059
  14   2.8572570   0.1032286  -2.7002070
  14   2.8572573   0.1032286   2.7462063
  14  -1.2670817  -4.1820234  -1.2544091
  14  -1.2670813  -4.1820233   4.1920041
  14  -1.2670807   1.2643900  -1.2544091
  14  -1.2670803   1.2643901   4.1920042
  14   4.1793317  -4.1820224  -1.2544088
  14   4.1793320  -4.1820223   4.1920044
  14   4.1793327   1.2643910  -1.2544087
  14   4.1793330   1.2643911   4.1920045
  14  -2.5891568  -2.8334316  -0.0215766
  14  -2.5891558   2.6129818  -0.0215765
  14   2.8572565  -2.8334306  -0.0215763
  14   2.8572575   2.6129828  -0.0215762
  14  -1.3962361  -1.3683347  -4.0469606
  14  -1.3962358  -1.3683346   1.3994526
  14  -1.3962351   4.0780787  -4.0469606
  14  -1.3962348   4.0780788   1.3994527
  14   4.0501773  -1.3683337  -4.0469603
  14   4.0501776  -1.3683336   1.3994530
  14   4.0501783   4.0780797  -4.0469602
  14   4.0501786   4.0780798   1.3994530
ATOMS   13
  32  -0.0913234   0.0750884  -0.0156751
  14  -4.0599895  -4.0406585  -4.0512066
  14  -4.0599892  -4.0406584   1.3952067
  14  -4.0599885   1.4057549  -4.0512065
  14  -4.0599882   1.4057550   1.3952068
  14   1.3864239  -4.0406575  -4.0512063
  14   1.3864242  -4.0406574   1.3952070
  14   1.3864249   1.4057559  -4.0512062
  14   1.3864252   1.4057560   1.3952071
  14  -0.0869043  -2.7994461  -2.7072642
  14  -0.0869040  -2.7994460   2.7391491
  14  -0.0869033   2.6469673  -2.7072641
  14  -0.0869030   2.6469674   2.7391491
  14  -4.0015191  -1.4467910  -1.4573525
  14  -4.0015188  -1.4467909   3.9890608
  14  -4.0015181   3.9996224  -1.4573524
  14  -4.0015178   3.9996224   3.9890609
  14   1.4448943  -1.4467900  -1.4573521
  14   1.4448946  -1.4467899   3.9890611
  14   1.4448953   3.9996234  -1.4573521
  14   1.4448956   3.9996234   3.9890612
  14  -2.6304463   0.0714313  -2.7072914
  14  -2.6304460   0.0714314   2.7391219
  14   2.8159671   0.0714323  -2.7072911
  14   2.8159674   0.0714324   2.7391222
  14  -1.3022685  -4.1460077  -1.2934990
  14  -1.3022682  -4.1460076   4.1529143
  14  -1.3022675   1.3004057  -1.2934989
  14  -1.3022672   1.3004057   4.1529144
  14   4.1441449  -4.1460067  -1.2934986
  14   4.1441452  -4.1460066   4.1529146
  14   4.1441459   1.3004067  -1.2934986
  14   4.1441462   1.3004067   4.1529147
  14  -2.6304468  -2.7994804  -0.0149310
  14  -2.6304458   2.6469330  -0.0149309
  14   2.8159666  -2.7994794  -0.0149307
  14   2.8159676   2.6469340  -0.0149306
  14  -1.3916414  -1.3723341  -4.0460262
  14  -1.3916411  -1.3723340   1.4003871
  14  -1.3916404   4.0740793  -4.0460261
  14  -1.3916401   4.0740794   1.4003872
  14   4.0547719  -1.3723331  -4.0460259
  14   4.0547722  -1.3723330   1.4003874
  14   4.0547729   4.0740803  -4.0460258
  14   4.0547732   4.0740804   1.4003875
ATOMS   14
  32  -0.0466822   0.0383832  -0.0080129
  14  -4.0624851  -4.0526035  -4.0579949
  14  -4.0624848  -4.0526034   1.3884183
  14  -4.0624841   1.3938099  -4.0579949
  14  -4.0624838   1.3938100   1.3884184
  14   1.3839283  -4.0526025  -4.0579946
  14   1.3839286  -4.0526024   1.3884186
  14   1.3839293   1.3938109  -4.0579945
  14   1.3839296   1.3938110   1.3884187
  14  -0.0444233  -2.7621779  -2.7150571
  14  -0.0444230  -2.7621779   2.7313562
  14  -0.0444223   2.6842355  -2.7150570
  14  -0.0444220   2.6842355   2.7313563
  14  -4.0325979  -1.4147854  -1.4201836
  14  -4.0325976  -1.4147854   4.0262297
  14  -4.0325969   4.0316280  -1.4201835
  14  -4.0325966   4.0316280   4.0262297
  14   1.4138155  -1.4147844  -1.4201833
  14   1.4138158  -1.4147844   4.0262300
  14   1.4138165   4.0316290  -1.4201832
  14   1.4138168   4.0316290   4.0262300
  14  -2.6757903   0.0365131  -2.7150711
  14  -2.6757900   0.0365132   2.7313422
  14   2.7706230   0.0365141  -2.7150707
  14   2.7706234   0.0365142   2.7313425
  14  -1.3409102  -4.1064558  -1.3364268
  14  -1.3409099  -4.1064558   4.1099864
  14  -1.3409092   1.3399576  -1.3364267
  14  -1.3409089   1.3399576   4.1099865
  14   4.1055032  -4.1064548  -1.3364265
  14   4.1055035  -4.1064548   4.1099868
  14   4.1055042   1.3399586  -1.3364264
  14   4.1055045   1.3399586   4.1099868
  14  -2.6757908  -2.7621957  -0.0076329
  14  -2.6757898   2.6842177  -0.0076329
  14   2.7706226  -2.7621947  -0.0076326
  14   2.7706236   2.6842187  -0.0076326
  14  -1.3865957  -1.3767262  -4.0450000
  14  -1.3865954  -1.3767261   1.4014133
  14  -1.3865947   4.0696872  -4.0449999
  14  -1.3865944   4.0696873   1.4014134
  14   4.0598177  -1.3767252  -4.0449997
  14   4.0598180  -1.3767251   1.4014136
  14   4.0598187   4.0696882  -4.0449996
  14   4.0598190   4.0696883   1.4014137
ATOMS   15
  32  -0.0000007   0.0000004  -0.0000005
  14  -4.0650947  -4.0650944  -4.0650935
  14  -4.0650944  -4.0650943   1.3813197
  14  -4.0650937   1.3813190  -4.0650935
  14  -4.0650934   1.3813191   1.3813198
  14   1.3813187  -4.0650934  -4.0650932
  14   1.3813190  -4.0650933   1.3813200
  14   1.3813197   1.3813200  -4.0650932
  14   1.3813200   1.3813201   1.3813201
  14  -0.0000008  -2.7232066  -2.7232061
  14  -0.0000005  -2.7232065   2.7232072
  14   0.0000002   2.7232068  -2.7232060
  14   0.0000005   2.7232069   2.7232072
  14  -4.0650971  -1.3813171  -1.3813161
  14  -4.0650968  -1.3813170   4.0650972
  14  -4.0650961   4.0650963  -1.3813160
  14  -4.0650958   4.0650964   4.0650973
  14   1.3813162  -1.3813161  -1.3813157
  14   1.3813165  -1.3813160   4.0650975
  14   1.3813172   4.0650973  -1.3813157
  14   1.3813175   4.0650974   4.0650976
  14  -2.7232067  -0.0000009  -2.7232062
  14  -2.7232064  -0.0000009   2.7232070
  14   2.7232067   0.0000001  -2.7232059
  14   2.7232070   0.0000001   2.7232073
  14  -1.3813179  -4.0650963  -1.3813166
  14  -1.3813176  -4.0650962   4.0650967
  14  -1.3813169   1.3813171  -1.3813165
  14  -1.3813166   1.3813171   4.0650968
  14   4.0650954  -4.0650953  -1.3813163
  14   4.0650957  -4.0650952   4.0650970
  14   4.0650964   1.3813181  -1.3813162
  14   4.0650968   1.3813181   4.0650971
  14  -2.7232071  -2.7232070  -0.0000013
  14  -2.7232061   2.7232064  -0.0000013
  14   2.7232063  -2.7232060  -0.0000010
  14   2.7232073   2.7232074  -0.0000010
  14  -1.3813193  -1.3813190  -4.0439269
  14  -1.3813190  -1.3813189   1.4024864
  14  -1.3813183   4.0650944  -4.0439268
  14  -1.3813180   4.0650945   1.4024865
  14   4.0650940  -1.3813180  -4.0439266
  14   4.0650944  -1.3813179   1.4024867
  14   4.0650951   4.0650954  -4.0439265
  14   4.0650954   4.0650955   1.4024868
ATOMS   16
  32   0.0466807  -0.0383824   0.0080119
  14  -4.0677044  -4.0775853  -4.0721921
  14  -4.0677040  -4.0775852   1.3742211
  14  -4.0677034   1.3688281  -4.0721921
  14  -4.0677030   1.3688282   1.3742212
  14   1.3787090  -4.0775843  -4.0721918
  14   1.3787093  -4.0775842   1.3742214
  14   1.3787100   1.3688291  -4.0721918
  14   1.3787103   1.3688292   1.3742215
  14   0.0444218  -2.6842352  -2.7313551
  14   0.0444221  -2.6842351   2.7150581
  14   0.0444228   2.7621782  -2.7313551
  14   0.0444231   2.7621783   2.7150582
  14  -4.0975964  -1.3478488  -1.3424485
  14  -4.0975961  -1.3478487   4.1039648
  14  -4.0975954   4.0985646  -1.3424484
  14  -4.0975951   4.0985647   4.1039648
  14   1.3488170  -1.3478478  -1.3424482
  14   1.3488173  -1.3478477   4.1039651
  14   1.3488180   4.0985656  -1.3424481
  14   1.3488183   4.0985657   4.1039651
  14  -2.7706230  -0.0365150  -2.7313414
  14  -2.7706227  -0.0365149   2.7150718
  14   2.6757904  -0.0365140  -2.7313411
  14   2.6757907  -0.0365139   2.7150722
  14  -1.4217257  -4.0237368  -1.4262064
  14  -1.4217253  -4.0237367   4.0202069
  14  -1.4217247   1.4226766  -1.4262063
  14  -1.4217243   1.4226766   4.0202070
  14   4.0246877  -4.0237358  -1.4262060
  14   4.0246880  -4.0237357   4.0202072
  14   4.0246887   1.4226776  -1.4262060
  14   4.0246890   1.4226776   4.0202073
  14  -2.7706235  -2.6842183   0.0076303
  14  -2.7706225   2.7621951   0.0076303
  14   2.6757899  -2.6842173   0.0076306
  14   2.6757909   2.7621961   0.0076307
  14  -1.3760430  -1.3859118  -4.0428538
  14  -1.3760427  -1.3859117   1.4035595
  14  -1.3760420   4.0605016  -4.0428537
  14  -1.3760416   4.0605017   1.4035596
  14   4.0703704  -1.3859108  -4.0428535
  14   4.0703707  -1.3859107   1.4035598
  14   4.0703714   4.0605026  -4.0428534
  14   4.0703717   4.0605027   1.4035599
ATOMS   17
  32   0.0913220  -0.0750876   0.0156741
  14  -4.0701999  -4.0895303  -4.0789805
  14  -4.0701996  -4.0895302   1.3674328
  14  -4.0701989   1.3568831  -4.0789804
  14  -4.0701986   1.3568832   1.3674328