# --- AXSF block for ---- iev =     5  freq =     107.836448 cm-1
ANIMSTEPS   30
ATOMS    1
  32   0.0561507  -0.0456212   0.0111425
  14  -4.0958985  -4.0185717  -4.0617345
  14  -4.0958982  -4.0185716   1.3846788
  14  -4.0958975   1.4278417  -4.0617344
  14  -4.0958972   1.4278418   1.3846788
  14   1.3505149  -4.0185707  -4.0617342
  14   1.3505152  -4.0185706   1.3846791
  14   1.3505159   1.4278427  -4.0617341
  14   1.3505162   1.4278428   1.3846791
  14  -0.0716008  -2.7129431  -2.7257888
  14  -0.0716005  -2.7129430   2.7206245
  14  -0.0715998   2.7334703  -2.7257887
  14  -0.0715995   2.7334704   2.7206246
  14  -4.0583157  -1.3961925  -1.4394647
  14  -4.0583154  -1.3961924   4.0069486
  14  -4.0583147   4.0502209  -1.4394646
  14  -4.0583144   4.0502210   4.0069487
  14   1.3880977  -1.3961915  -1.4394644
  14   1.3880980  -1.3961914   4.0069489
  14   1.3880987   4.0502219  -1.4394643
  14   1.3880990   4.0502220   4.0069490
  14  -2.7359067   0.0581669  -2.7256871
  14  -2.7359064   0.0581670   2.7207262
  14   2.7105066   0.0581679  -2.7256868
  14   2.7105069   0.0581680   2.7207265
  14  -1.3622957  -4.0920953  -1.3279336
  14  -1.3622954  -4.0920952   4.1184796
  14  -1.3622947   1.3543181  -1.3279335
  14  -1.3622944   1.3543182   4.1184797
  14   4.0841177  -4.0920943  -1.3279333
  14   4.0841180  -4.0920942   4.1184800
  14   4.0841187   1.3543191  -1.3279332
  14   4.0841190   1.3543192   4.1184800
  14  -2.7360206  -2.7127437  -0.0142061
  14  -2.7360196   2.7336697  -0.0142060
  14   2.7103928  -2.7127427  -0.0142057
  14   2.7103938   2.7336707  -0.0142057
  14  -1.4243639  -1.3469409  -4.0520496
  14  -1.4243636  -1.3469409   1.3943636
  14  -1.4243629   4.0994724  -4.0520496
  14  -1.4243626   4.0994725   1.3943637
  14   4.0220495  -1.3469399  -4.0520493
  14   4.0220498  -1.3469399   1.3943640
  14   4.0220505   4.0994734  -4.0520492
  14   4.0220508   4.0994735   1.3943640
ATOMS    2
  32   0.1098481  -0.0892489   0.0217986
  14  -4.1253560  -3.9740822  -4.0585223
  14  -4.1253557  -3.9740821   1.3878910
  14  -4.1253550   1.4723312  -4.0585222
  14  -4.1253547   1.4723313   1.3878910
  14   1.3210574  -3.9740812  -4.0585220
  14   1.3210577  -3.9740811   1.3878913
  14   1.3210584   1.4723322  -4.0585219
  14   1.3210587   1.4723323   1.3878913
  14  -0.1400716  -2.7031282  -2.7282586
  14  -0.1400713  -2.7031282   2.7181547
  14  -0.1400706   2.7432852  -2.7282585
  14  -0.1400703   2.7432852   2.7181548
  14  -4.0518306  -1.4104177  -1.4950719
  14  -4.0518303  -1.4104176   3.9513414
  14  -4.0518296   4.0359957  -1.4950718
  14  -4.0518293   4.0359958   3.9513414
  14   1.3945827  -1.4104167  -1.4950716
  14   1.3945830  -1.4104166   3.9513417
  14   1.3945837   4.0359967  -1.4950715
  14   1.3945840   4.0359968   3.9513417
  14  -2.7480518   0.1137925  -2.7280595
  14  -2.7480515   0.1137926   2.7183538
  14   2.6983616   0.1137935  -2.7280592
  14   2.6983619   0.1137936   2.7183541
  14  -1.3441048  -4.1179142  -1.2768837
  14  -1.3441045  -4.1179142   4.1695295
  14  -1.3441038   1.3284992  -1.2768837
  14  -1.3441035   1.3284992   4.1695296
  14   4.1023086  -4.1179132  -1.2768834
  14   4.1023089  -4.1179132   4.1695298
  14   4.1023096   1.3285002  -1.2768834
  14   4.1023099   1.3285002   4.1695299
  14  -2.7482740  -2.7027377  -0.0277899
  14  -2.7482730   2.7436757  -0.0277899
  14   2.6981394  -2.7027367  -0.0277896
  14   2.6981404   2.7436767  -0.0277896
  14  -1.4655272  -1.3140654  -4.0598174
  14  -1.4655269  -1.3140653   1.3865959
  14  -1.4655262   4.1323480  -4.0598173
  14  -1.4655259   4.1323480   1.3865960
  14   3.9808861  -1.3140644  -4.0598171
  14   3.9808865  -1.3140643   1.3865962
  14   3.9808871   4.1323490  -4.0598170
  14   3.9808875   4.1323490   1.3865963
ATOMS    3
  32   0.1587446  -0.1289759   0.0315019
  14  -4.1521798  -3.9335704  -4.0555973
  14  -4.1521795  -3.9335703   1.3908160
  14  -4.1521788   1.5128430  -4.0555972
  14  -4.1521785   1.5128431   1.3908160
  14   1.2942336  -3.9335694  -4.0555970
  14   1.2942339  -3.9335693   1.3908163
  14   1.2942346   1.5128440  -4.0555969
  14   1.2942349   1.5128441   1.3908164
  14  -0.2024206  -2.6941909  -2.7305076
  14  -0.2024203  -2.6941908   2.7159057
  14  -0.2024196   2.7522225  -2.7305075
  14  -0.2024193   2.7522226   2.7159058
  14  -4.0459254  -1.4233711  -1.5457075
  14  -4.0459251  -1.4233710   3.9007058
  14  -4.0459244   4.0230423  -1.5457074
  14  -4.0459241   4.0230424   3.9007059
  14   1.4004880  -1.4233701  -1.5457072
  14   1.4004883  -1.4233700   3.9007061
  14   1.4004890   4.0230433  -1.5457071
  14   1.4004893   4.0230434   3.9007062
  14  -2.7591109   0.1644448  -2.7302198
  14  -2.7591106   0.1644449   2.7161935
  14   2.6873024   0.1644458  -2.7302195
  14   2.6873028   0.1644459   2.7161938
  14  -1.3275403  -4.1414248  -1.2303981
  14  -1.3275400  -4.1414247   4.2160152
  14  -1.3275393   1.3049886  -1.2303980
  14  -1.3275390   1.3049887   4.2160153
  14   4.1188731  -4.1414238  -1.2303978
  14   4.1188734  -4.1414237   4.2160155
  14   4.1188741   1.3049896  -1.2303977
  14   4.1188744   1.3049897   4.2160156
  14  -2.7594319  -2.6936263  -0.0401594
  14  -2.7594309   2.7527871  -0.0401593
  14   2.6869815  -2.6936253  -0.0401590
  14   2.6869825   2.7527881  -0.0401590
  14  -1.5030103  -1.2841292  -4.0668906
  14  -1.5030100  -1.2841291   1.3795227
  14  -1.5030093   4.1622842  -4.0668905
  14  -1.5030090   4.1622843   1.3795227
  14   3.9434031  -1.2841282  -4.0668903
  14   3.9434034  -1.2841281   1.3795230
  14   3.9434041   4.1622852  -4.0668902
  14   3.9434044   4.1622853   1.3795230
ATOMS    4
  32   0.2007031  -0.1630661   0.0398284
  14  -4.1751976  -3.8988068  -4.0530873
  14  -4.1751973  -3.8988067   1.3933260
  14  -4.1751966   1.5476066  -4.0530872
  14  -4.1751963   1.5476066   1.3933260
  14   1.2712158  -3.8988058  -4.0530870
  14   1.2712161  -3.8988057   1.3933263
  14   1.2712168   1.5476076  -4.0530869
  14   1.2712171   1.5476076   1.3933263
  14  -0.2559229  -2.6865216  -2.7324374
  14  -0.2559226  -2.6865216   2.7139758
  14  -0.2559219   2.7598918  -2.7324374
  14  -0.2559216   2.7598918   2.7139759
  14  -4.0408580  -1.4344866  -1.5891584
  14  -4.0408577  -1.4344865   3.8572549
  14  -4.0408570   4.0119268  -1.5891583
  14  -4.0408567   4.0119269   3.8572550
  14   1.4055553  -1.4344855  -1.5891580
  14   1.4055556  -1.4344855   3.8572552
  14   1.4055563   4.0119278  -1.5891580
  14   1.4055566   4.0119279   3.8572553
  14  -2.7686009   0.2079100  -2.7320735
  14  -2.7686006   0.2079101   2.7143397
  14   2.6778125   0.2079110  -2.7320732
  14   2.6778128   0.2079111   2.7143400
  14  -1.3133262  -4.1615994  -1.1905083
  14  -1.3133259  -4.1615994   4.2559050
  14  -1.3133252   1.2848140  -1.1905082
  14  -1.3133249   1.2848140   4.2559051
  14   4.1330872  -4.1615984  -1.1905080
  14   4.1330875  -4.1615984   4.2559053
  14   4.1330882   1.2848150  -1.1905079
  14   4.1330885   1.2848150   4.2559054
  14  -2.7690066  -2.6858077  -0.0507737
  14  -2.7690056   2.7606056  -0.0507736
  14   2.6774068  -2.6858067  -0.0507733
  14   2.6774078   2.7606066  -0.0507733
  14  -1.5351748  -1.2584406  -4.0729602
  14  -1.5351745  -1.2584405   1.3734530
  14  -1.5351738   4.1879728  -4.0729602
  14  -1.5351735   4.1879728   1.3734531
  14   3.9112385  -1.2584396  -4.0729599
  14   3.9112389  -1.2584395   1.3734533
  14   3.9112395   4.1879738  -4.0729599
  14   3.9112399   4.1879738   1.3734534
ATOMS    5
  32   0.2338899  -0.1900295   0.0464142
  14  -4.1934033  -3.8713108  -4.0511021
  14  -4.1934030  -3.8713107   1.3953112
  14  -4.1934023   1.5751026  -4.0511020
  14  -4.1934020   1.5751026   1.3953113
  14   1.2530101  -3.8713098  -4.0511017
  14   1.2530104  -3.8713097   1.3953115
  14   1.2530111   1.5751036  -4.0511017
  14   1.2530114   1.5751036   1.3953116
  14  -0.2982402  -2.6804557  -2.7339639
  14  -0.2982399  -2.6804556   2.7124494
  14  -0.2982392   2.7659577  -2.7339638
  14  -0.2982389   2.7659578   2.7124495
  14  -4.0368501  -1.4432782  -1.6235255
  14  -4.0368497  -1.4432782   3.8228877
  14  -4.0368490   4.0031352  -1.6235254
  14  -4.0368487   4.0031352   3.8228878
  14   1.4095633  -1.4432772  -1.6235252
  14   1.4095636  -1.4432772   3.8228881
  14   1.4095643   4.0031362  -1.6235251
  14   1.4095646   4.0031362   3.8228881
  14  -2.7761069   0.2422886  -2.7335398
  14  -2.7761066   0.2422886   2.7128735
  14   2.6703064   0.2422896  -2.7335395
  14   2.6703067   0.2422896   2.7128738
  14  -1.3020836  -4.1775564  -1.1589577
  14  -1.3020833  -4.1775564   4.2874555
  14  -1.3020826   1.2688570  -1.1589577
  14  -1.3020823   1.2688570   4.2874556
  14   4.1443298  -4.1775554  -1.1589574
  14   4.1443301  -4.1775554   4.2874558
  14   4.1443308   1.2688580  -1.1589573
  14   4.1443311   1.2688580   4.2874559
  14  -2.7765797  -2.6796237  -0.0591690
  14  -2.7765787   2.7667897  -0.0591689
  14   2.6698337  -2.6796227  -0.0591687
  14   2.6698347   2.7667907  -0.0591686
  14  -1.5606152  -1.2381224  -4.0777610
  14  -1.5606149  -1.2381224   1.3686523
  14  -1.5606142   4.2082910  -4.0777609
  14  -1.5606138   4.2082910   1.3686524
  14   3.8857982  -1.2381214  -4.0777607
  14   3.8857985  -1.2381214   1.3686526
  14   3.8857992   4.2082920  -4.0777606
  14   3.8857995   4.2082920   1.3686527
ATOMS    6
  32   0.2568546  -0.2086877   0.0509714
  14  -4.2060014  -3.8522841  -4.0497283
  14  -4.2060010  -3.8522840   1.3966850
  14  -4.2060004   1.5941293  -4.0497282
  14  -4.2060000   1.5941294   1.3966850
  14   1.2404120  -3.8522831  -4.0497280
  14   1.2404123  -3.8522830   1.3966853
  14   1.2404130   1.5941303  -4.0497279
  14   1.2404133   1.5941304   1.3966854
  14  -0.3275229  -2.6762582  -2.7350201
  14  -0.3275226  -2.6762581   2.7113932
  14  -0.3275219   2.7701552  -2.7350200
  14  -0.3275216   2.7701553   2.7113932
  14  -4.0340766  -1.4493619  -1.6473070
  14  -4.0340763  -1.4493618   3.7991063
  14  -4.0340756   3.9970515  -1.6473069
  14  -4.0340753   3.9970515   3.7991064
  14   1.4123368  -1.4493609  -1.6473067
  14   1.4123371  -1.4493608   3.7991066
  14   1.4123378   3.9970525  -1.6473066
  14   1.4123381   3.9970525   3.7991067
  14  -2.7813010   0.2660779  -2.7345544
  14  -2.7813007   0.2660779   2.7118589
  14   2.6651124   0.2660789  -2.7345541
  14   2.6651127   0.2660789   2.7118592
  14  -1.2943039  -4.1885984  -1.1371253
  14  -1.2943036  -4.1885983   4.3092879
  14  -1.2943029   1.2578150  -1.1371252
  14  -1.2943026   1.2578151   4.3092880
  14   4.1521095  -4.1885974  -1.1371250
  14   4.1521098  -4.1885973   4.3092883
  14   4.1521105   1.2578160  -1.1371249
  14   4.1521108   1.2578161   4.3092883
  14  -2.7818201  -2.6753445  -0.0649784
  14  -2.7818191   2.7710689  -0.0649783
  14   2.6645933  -2.6753435  -0.0649781
  14   2.6645943   2.7710699  -0.0649780
  14  -1.5782194  -1.2240626  -4.0810830
  14  -1.5782191  -1.2240625   1.3653303
  14  -1.5782184   4.2223508  -4.0810829
  14  -1.5782181   4.2223509   1.3653304
  14   3.8681940  -1.2240616  -4.0810827
  14   3.8681943  -1.2240615   1.3653306
  14   3.8681950   4.2223518  -4.0810826
  14   3.8681953   4.2223519   1.3653307
ATOMS    7
  32   0.2685934  -0.2182252   0.0533010
  14  -4.2124411  -3.8425582  -4.0490261
  14  -4.2124408  -3.8425581   1.3973872
  14  -4.2124401   1.6038552  -4.0490260
  14  -4.2124398   1.6038553   1.3973873
  14   1.2339723  -3.8425572  -4.0490258
  14   1.2339726  -3.8425571   1.3973875
  14   1.2339733   1.6038562  -4.0490257
  14   1.2339736   1.6038563   1.3973876
  14  -0.3424914  -2.6741125  -2.7355600
  14  -0.3424911  -2.6741125   2.7108532
  14  -0.3424904   2.7723008  -2.7355600
  14  -0.3424901   2.7723009   2.7108533
  14  -4.0326589  -1.4524717  -1.6594633
  14  -4.0326586  -1.4524716   3.7869499
  14  -4.0326579   3.9939417  -1.6594633
  14  -4.0326576   3.9939418   3.7869500
  14   1.4137545  -1.4524707  -1.6594630
  14   1.4137548  -1.4524706   3.7869502
  14   1.4137555   3.9939427  -1.6594630
  14   1.4137558   3.9939428   3.7869503
  14  -2.7839560   0.2782383  -2.7350730
  14  -2.7839557   0.2782383   2.7113403
  14   2.6624574   0.2782393  -2.7350727
  14   2.6624577   0.2782393   2.7113406
  14  -1.2903272  -4.1942427  -1.1259652
  14  -1.2903269  -4.1942426   4.3204480
  14  -1.2903262   1.2521707  -1.1259652
  14  -1.2903259   1.2521708   4.3204481
  14   4.1560862  -4.1942417  -1.1259649
  14   4.1560865  -4.1942416   4.3204483
  14   4.1560872   1.2521717  -1.1259649
  14   4.1560875   1.2521718   4.3204484
  14  -2.7844988  -2.6731570  -0.0679480
  14  -2.7844978   2.7732564  -0.0679479
  14   2.6619146  -2.6731560  -0.0679477
  14   2.6619156   2.7732574  -0.0679476
  14  -1.5872182  -1.2168756  -4.0827811
  14  -1.5872179  -1.2168756   1.3636322
  14  -1.5872172   4.2295378  -4.0827810
  14  -1.5872169   4.2295378   1.3636322
  14   3.8591952  -1.2168746  -4.0827808
  14   3.8591955  -1.2168746   1.3636325
  14   3.8591962   4.2295388  -4.0827807
  14   3.8591965   4.2295388   1.3636326
ATOMS    8
  32   0.2685934  -0.2182252   0.0533010
  14  -4.2124411  -3.8425582  -4.0490261
  14  -4.2124408  -3.8425581   1.3973872
  14  -4.2124401   1.6038552  -4.0490260
  14  -4.2124398   1.6038553   1.3973873
  14   1.2339723  -3.8425572  -4.0490258
  14   1.2339726  -3.8425571   1.3973875
  14   1.2339733   1.6038562  -4.0490257
  14   1.2339736   1.6038563   1.3973876
  14  -0.3424914  -2.6741125  -2.7355600
  14  -0.3424911  -2.6741125   2.7108532
  14  -0.3424904   2.7723008  -2.7355600
  14  -0.3424901   2.7723009   2.7108533
  14  -4.0326589  -1.4524717  -1.6594633
  14  -4.0326586  -1.4524716   3.7869499
  14  -4.0326579   3.9939417  -1.6594633
  14  -4.0326576   3.9939418   3.7869500
  14   1.4137545  -1.4524707  -1.6594630
  14   1.4137548  -1.4524706   3.7869502
  14   1.4137555   3.9939427  -1.6594630
  14   1.4137558   3.9939428   3.7869503
  14  -2.7839560   0.2782383  -2.7350730
  14  -2.7839557   0.2782383   2.7113403
  14   2.6624574   0.2782393  -2.7350727
  14   2.6624577   0.2782393   2.7113406
  14  -1.2903272  -4.1942427  -1.1259652
  14  -1.2903269  -4.1942426   4.3204480
  14  -1.2903262   1.2521707  -1.1259652
  14  -1.2903259   1.2521708   4.3204481
  14   4.1560862  -4.1942417  -1.1259649
  14   4.1560865  -4.1942416   4.3204483
  14   4.1560872   1.2521717  -1.1259649
  14   4.1560875   1.2521718   4.3204484
  14  -2.7844988  -2.6731570  -0.0679480
  14  -2.7844978   2.7732564  -0.0679479
  14   2.6619146  -2.6731560  -0.0679477
  14   2.6619156   2.7732574  -0.0679476
  14  -1.5872182  -1.2168756  -4.0827811
  14  -1.5872179  -1.2168756   1.3636322
  14  -1.5872172   4.2295378  -4.0827810
  14  -1.5872169   4.2295378   1.3636322
  14   3.8591952  -1.2168746  -4.0827808
  14   3.8591955  -1.2168746   1.3636325
  14   3.8591962   4.2295388  -4.0827807
  14   3.8591965   4.2295388   1.3636326
ATOMS    9
  32   0.2568546  -0.2086877   0.0509714
  14  -4.2060014  -3.8522841  -4.0497283
  14  -4.2060010  -3.8522840   1.3966850
  14  -4.2060004   1.5941293  -4.0497282
  14  -4.2060000   1.5941294   1.3966850
  14   1.2404120  -3.8522831  -4.0497280
  14   1.2404123  -3.8522830   1.3966853
  14   1.2404130   1.5941303  -4.0497279
  14   1.2404133   1.5941304   1.3966854
  14  -0.3275229  -2.6762582  -2.7350201
  14  -0.3275226  -2.6762581   2.7113932
  14  -0.3275219   2.7701552  -2.7350200
  14  -0.3275216   2.7701553   2.7113932
  14  -4.0340766  -1.4493619  -1.6473070
  14  -4.0340763  -1.4493618   3.7991063
  14  -4.0340756   3.9970515  -1.6473069
  14  -4.0340753   3.9970515   3.7991064
  14   1.4123368  -1.4493609  -1.6473067
  14   1.4123371  -1.4493608   3.7991066
  14   1.4123378   3.9970525  -1.6473066
  14   1.4123381   3.9970525   3.7991067
  14  -2.7813010   0.2660779  -2.7345544
  14  -2.7813007   0.2660779   2.7118589
  14   2.6651124   0.2660789  -2.7345541
  14   2.6651127   0.2660789   2.7118592
  14  -1.2943039  -4.1885984  -1.1371253
  14  -1.2943036  -4.1885983   4.3092879
  14  -1.2943029   1.2578150  -1.1371252
  14  -1.2943026   1.2578151   4.3092880
  14   4.1521095  -4.1885974  -1.1371250
  14   4.1521098  -4.1885973   4.3092883
  14   4.1521105   1.2578160  -1.1371249
  14   4.1521108   1.2578161   4.3092883
  14  -2.7818201  -2.6753445  -0.0649784
  14  -2.7818191   2.7710689  -0.0649783
  14   2.6645933  -2.6753435  -0.0649781
  14   2.6645943   2.7710699  -0.0649780
  14  -1.5782194  -1.2240626  -4.0810830
  14  -1.5782191  -1.2240625   1.3653303
  14  -1.5782184   4.2223508  -4.0810829
  14  -1.5782181   4.2223509   1.3653304
  14   3.8681940  -1.2240616  -4.0810827
  14   3.8681943  -1.2240615   1.3653306
  14   3.8681950   4.2223518  -4.0810826
  14   3.8681953   4.2223519   1.3653307
ATOMS   10
  32   0.2338899  -0.1900295   0.0464142
  14  -4.1934033  -3.8713108  -4.0511021
  14  -4.1934030  -3.8713107   1.3953112
  14  -4.1934023   1.5751026  -4.0511020
  14  -4.1934020   1.5751026   1.3953113
  14   1.2530101  -3.8713098  -4.0511017
  14   1.2530104  -3.8713097   1.3953115
  14   1.2530111   1.5751036  -4.0511017
  14   1.2530114   1.5751036   1.3953116
  14  -0.2982402  -2.6804557  -2.7339639
  14  -0.2982399  -2.6804556   2.7124494
  14  -0.2982392   2.7659577  -2.7339638
  14  -0.2982389   2.7659578   2.7124495
  14  -4.0368501  -1.4432782  -1.6235255
  14  -4.0368497  -1.4432782   3.8228877
  14  -4.0368490   4.0031352  -1.6235254
  14  -4.0368487   4.0031352   3.8228878
  14   1.4095633  -1.4432772  -1.6235252
  14   1.4095636  -1.4432772   3.8228881
  14   1.4095643   4.0031362  -1.6235251
  14   1.4095646   4.0031362   3.8228881
  14  -2.7761069   0.2422886  -2.7335398
  14  -2.7761066   0.2422886   2.7128735
  14   2.6703064   0.2422896  -2.7335395
  14   2.6703067   0.2422896   2.7128738
  14  -1.3020836  -4.1775564  -1.1589577
  14  -1.3020833  -4.1775564   4.2874555
  14  -1.3020826   1.2688570  -1.1589577
  14  -1.3020823   1.2688570   4.2874556
  14   4.1443298  -4.1775554  -1.1589574
  14   4.1443301  -4.1775554   4.2874558
  14   4.1443308   1.2688580  -1.1589573
  14   4.1443311   1.2688580   4.2874559
  14  -2.7765797  -2.6796237  -0.0591690
  14  -2.7765787   2.7667897  -0.0591689
  14   2.6698337  -2.6796227  -0.0591687
  14   2.6698347   2.7667907  -0.0591686
  14  -1.5606152  -1.2381224  -4.0777610
  14  -1.5606149  -1.2381224   1.3686523
  14  -1.5606142   4.2082910  -4.0777609
  14  -1.5606138   4.2082910   1.3686524
  14   3.8857982  -1.2381214  -4.0777607
  14   3.8857985  -1.2381214   1.3686526
  14   3.8857992   4.2082920  -4.0777606
  14   3.8857995   4.2082920   1.3686527
ATOMS   11
  32   0.2007031  -0.1630661   0.0398284
  14  -4.1751976  -3.8988068  -4.0530873
  14  -4.1751973  -3.8988067   1.3933260
  14  -4.1751966   1.5476066  -4.0530872
  14  -4.1751963   1.5476066   1.3933260
  14   1.2712158  -3.8988058  -4.0530870
  14   1.2712161  -3.8988057   1.3933263
  14   1.2712168   1.5476076  -4.0530869
  14   1.2712171   1.5476076   1.3933263
  14  -0.2559229  -2.6865216  -2.7324374
  14  -0.2559226  -2.6865216   2.7139758
  14  -0.2559219   2.7598918  -2.7324374
  14  -0.2559216   2.7598918   2.7139759
  14  -4.0408580  -1.4344866  -1.5891584
  14  -4.0408577  -1.4344865   3.8572549
  14  -4.0408570   4.0119268  -1.5891583
  14  -4.0408567   4.0119269   3.8572550
  14   1.4055553  -1.4344855  -1.5891580
  14   1.4055556  -1.4344855   3.8572552
  14   1.4055563   4.0119278  -1.5891580
  14   1.4055566   4.0119279   3.8572553
  14  -2.7686009   0.2079100  -2.7320735
  14  -2.7686006   0.2079101   2.7143397
  14   2.6778125   0.2079110  -2.7320732
  14   2.6778128   0.2079111   2.7143400
  14  -1.3133262  -4.1615994  -1.1905083
  14  -1.3133259  -4.1615994   4.2559050
  14  -1.3133252   1.2848140  -1.1905082
  14  -1.3133249   1.2848140   4.2559051
  14   4.1330872  -4.1615984  -1.1905080
  14   4.1330875  -4.1615984   4.2559053
  14   4.1330882   1.2848150  -1.1905079
  14   4.1330885   1.2848150   4.2559054
  14  -2.7690066  -2.6858077  -0.0507737
  14  -2.7690056   2.7606056  -0.0507736
  14   2.6774068  -2.6858067  -0.0507733
  14   2.6774078   2.7606066  -0.0507733
  14  -1.5351748  -1.2584406  -4.0729602
  14  -1.5351745  -1.2584405   1.3734530
  14  -1.5351738   4.1879728  -4.0729602
  14  -1.5351735   4.1879728   1.3734531
  14   3.9112385  -1.2584396  -4.0729599
  14   3.9112389  -1.2584395   1.3734533
  14   3.9112395   4.1879738  -4.0729599
  14   3.9112399   4.1879738   1.3734534
ATOMS   12
  32   0.1587446  -0.1289759   0.0315019
  14  -4.1521798  -3.9335704  -4.0555973
  14  -4.1521795  -3.9335703   1.3908160
  14  -4.1521788   1.5128430  -4.0555972
  14  -4.1521785   1.5128431   1.3908160
  14   1.2942336  -3.9335694  -4.0555970
  14   1.2942339  -3.9335693   1.3908163
  14   1.2942346   1.5128440  -4.0555969
  14   1.2942349   1.5128441   1.3908164
  14  -0.2024206  -2.6941909  -2.7305076
  14  -0.2024203  -2.6941908   2.7159057
  14  -0.2024196   2.7522225  -2.7305075
  14  -0.2024193   2.7522226   2.7159058
  14  -4.0459254  -1.4233711  -1.5457075
  14  -4.0459251  -1.4233710   3.9007058
  14  -4.0459244   4.0230423  -1.5457074
  14  -4.0459241   4.0230424   3.9007059
  14   1.4004880  -1.4233701  -1.5457072
  14   1.4004883  -1.4233700   3.9007061
  14   1.4004890   4.0230433  -1.5457071
  14   1.4004893   4.0230434   3.9007062
  14  -2.7591109   0.1644448  -2.7302198
  14  -2.7591106   0.1644449   2.7161935
  14   2.6873024   0.1644458  -2.7302195
  14   2.6873028   0.1644459   2.7161938
  14  -1.3275403  -4.1414248  -1.2303981
  14  -1.3275400  -4.1414247   4.2160152
  14  -1.3275393   1.3049886  -1.2303980
  14  -1.3275390   1.3049887   4.2160153
  14   4.1188731  -4.1414238  -1.2303978
  14   4.1188734  -4.1414237   4.2160155
  14   4.1188741   1.3049896  -1.2303977
  14   4.1188744   1.3049897   4.2160156
  14  -2.7594319  -2.6936263  -0.0401594
  14  -2.7594309   2.7527871  -0.0401593
  14   2.6869815  -2.6936253  -0.0401590
  14   2.6869825   2.7527881  -0.0401590
  14  -1.5030103  -1.2841292  -4.0668906
  14  -1.5030100  -1.2841291   1.3795227
  14  -1.5030093   4.1622842  -4.0668905
  14  -1.5030090   4.1622843   1.3795227
  14   3.9434031  -1.2841282  -4.0668903
  14   3.9434034  -1.2841281   1.3795230
  14   3.9434041   4.1622852  -4.0668902
  14   3.9434044   4.1622853   1.3795230
ATOMS   13
  32   0.1098481  -0.0892489   0.0217986
  14  -4.1253560  -3.9740822  -4.0585223
  14  -4.1253557  -3.9740821   1.3878910
  14  -4.1253550   1.4723312  -4.0585222
  14  -4.1253547   1.4723313   1.3878910
  14   1.3210574  -3.9740812  -4.0585220
  14   1.3210577  -3.9740811   1.3878913
  14   1.3210584   1.4723322  -4.0585219
  14   1.3210587   1.4723323   1.3878913
  14  -0.1400716  -2.7031282  -2.7282586
  14  -0.1400713  -2.7031282   2.7181547
  14  -0.1400706   2.7432852  -2.7282585
  14  -0.1400703   2.7432852   2.7181548
  14  -4.0518306  -1.4104177  -1.4950719
  14  -4.0518303  -1.4104176   3.9513414
  14  -4.0518296   4.0359957  -1.4950718
  14  -4.0518293   4.0359958   3.9513414
  14   1.3945827  -1.4104167  -1.4950716
  14   1.3945830  -1.4104166   3.9513417
  14   1.3945837   4.0359967  -1.4950715
  14   1.3945840   4.0359968   3.9513417
  14  -2.7480518   0.1137925  -2.7280595
  14  -2.7480515   0.1137926   2.7183538
  14   2.6983616   0.1137935  -2.7280592
  14   2.6983619   0.1137936   2.7183541
  14  -1.3441048  -4.1179142  -1.2768837
  14  -1.3441045  -4.1179142   4.1695295
  14  -1.3441038   1.3284992  -1.2768837
  14  -1.3441035   1.3284992   4.1695296
  14   4.1023086  -4.1179132  -1.2768834
  14   4.1023089  -4.1179132   4.1695298
  14   4.1023096   1.3285002  -1.2768834
  14   4.1023099   1.3285002   4.1695299
  14  -2.7482740  -2.7027377  -0.0277899
  14  -2.7482730   2.7436757  -0.0277899
  14   2.6981394  -2.7027367  -0.0277896
  14   2.6981404   2.7436767  -0.0277896
  14  -1.4655272  -1.3140654  -4.0598174
  14  -1.4655269  -1.3140653   1.3865959
  14  -1.4655262   4.1323480  -4.0598173
  14  -1.4655259   4.1323480   1.3865960
  14   3.9808861  -1.3140644  -4.0598171
  14   3.9808865  -1.3140643   1.3865962
  14   3.9808871   4.1323490  -4.0598170
  14   3.9808875   4.1323490   1.3865963
ATOMS   14
  32   0.0561507  -0.0456212   0.0111425
  14  -4.0958985  -4.0185717  -4.0617345
  14  -4.0958982  -4.0185716   1.3846788
  14  -4.0958975   1.4278417  -4.0617344
  14  -4.0958972   1.4278418   1.3846788
  14   1.3505149  -4.0185707  -4.0617342
  14   1.3505152  -4.0185706   1.3846791
  14   1.3505159   1.4278427  -4.0617341
  14   1.3505162   1.4278428   1.3846791
  14  -0.0716008  -2.7129431  -2.7257888
  14  -0.0716005  -2.7129430   2.7206245
  14  -0.0715998   2.7334703  -2.7257887
  14  -0.0715995   2.7334704   2.7206246
  14  -4.0583157  -1.3961925  -1.4394647
  14  -4.0583154  -1.3961924   4.0069486
  14  -4.0583147   4.0502209  -1.4394646
  14  -4.0583144   4.0502210   4.0069487
  14   1.3880977  -1.3961915  -1.4394644
  14   1.3880980  -1.3961914   4.0069489
  14   1.3880987   4.0502219  -1.4394643
  14   1.3880990   4.0502220   4.0069490
  14  -2.7359067   0.0581669  -2.7256871
  14  -2.7359064   0.0581670   2.7207262
  14   2.7105066   0.0581679  -2.7256868
  14   2.7105069   0.0581680   2.7207265
  14  -1.3622957  -4.0920953  -1.3279336
  14  -1.3622954  -4.0920952   4.1184796
  14  -1.3622947   1.3543181  -1.3279335
  14  -1.3622944   1.3543182   4.1184797
  14   4.0841177  -4.0920943  -1.3279333
  14   4.0841180  -4.0920942   4.1184800
  14   4.0841187   1.3543191  -1.3279332
  14   4.0841190   1.3543192   4.1184800
  14  -2.7360206  -2.7127437  -0.0142061
  14  -2.7360196   2.7336697  -0.0142060
  14   2.7103928  -2.7127427  -0.0142057
  14   2.7103938   2.7336707  -0.0142057
  14  -1.4243639  -1.3469409  -4.0520496
  14  -1.4243636  -1.3469409   1.3943636
  14  -1.4243629   4.0994724  -4.0520496
  14  -1.4243626   4.0994725   1.3943637
  14   4.0220495  -1.3469399  -4.0520493
  14   4.0220498  -1.3469399   1.3943640
  14   4.0220505   4.0994734  -4.0520492
  14   4.0220508   4.0994735   1.3943640
ATOMS   15
  32  -0.0000007   0.0000004  -0.0000005
  14  -4.0650947  -4.0650944  -4.0650935
  14  -4.0650944  -4.0650943   1.3813197
  14  -4.0650937   1.3813190  -4.0650935
  14  -4.0650934   1.3813191   1.3813198
  14   1.3813187  -4.0650934  -4.0650932
  14   1.3813190  -4.0650933   1.3813200
  14   1.3813197   1.3813200  -4.0650932
  14   1.3813200   1.3813201   1.3813201
  14  -0.0000008  -2.7232066  -2.7232061
  14  -0.0000005  -2.7232065   2.7232072
  14   0.0000002   2.7232068  -2.7232060
  14   0.0000005   2.7232069   2.7232072
  14  -4.0650971  -1.3813171  -1.3813161
  14  -4.0650968  -1.3813170   4.0650972
  14  -4.0650961   4.0650963  -1.3813160
  14  -4.0650958   4.0650964   4.0650973
  14   1.3813162  -1.3813161  -1.3813157
  14   1.3813165  -1.3813160   4.0650975
  14   1.3813172   4.0650973  -1.3813157
  14   1.3813175   4.0650974   4.0650976
  14  -2.7232067  -0.0000009  -2.7232062
  14  -2.7232064  -0.0000009   2.7232070
  14   2.7232067   0.0000001  -2.7232059
  14   2.7232070   0.0000001   2.7232073
  14  -1.3813179  -4.0650963  -1.3813166
  14  -1.3813176  -4.0650962   4.0650967
  14  -1.3813169   1.3813171  -1.3813165
  14  -1.3813166   1.3813171   4.0650968
  14   4.0650954  -4.0650953  -1.3813163
  14   4.0650957  -4.0650952   4.0650970
  14   4.0650964   1.3813181  -1.3813162
  14   4.0650968   1.3813181   4.0650971
  14  -2.7232071  -2.7232070  -0.0000013
  14  -2.7232061   2.7232064  -0.0000013
  14   2.7232063  -2.7232060  -0.0000010
  14   2.7232073   2.7232074  -0.0000010
  14  -1.3813193  -1.3813190  -4.0439269
  14  -1.3813190  -1.3813189   1.4024864
  14  -1.3813183   4.0650944  -4.0439268
  14  -1.3813180   4.0650945   1.4024865
  14   4.0650940  -1.3813180  -4.0439266
  14   4.0650944  -1.3813179   1.4024867
  14   4.0650951   4.0650954  -4.0439265
  14   4.0650954   4.0650955   1.4024868
ATOMS   16
  32  -0.0561522   0.0456220  -0.0111436
  14  -4.0342910  -4.1116171  -4.0684525
  14  -4.0342906  -4.1116171   1.3779607
  14  -4.0342900   1.3347963  -4.0684525
  14  -4.0342896   1.3347963   1.3779608
  14   1.4121224  -4.1116161  -4.0684522
  14   1.4121227  -4.1116161   1.3779610
  14   1.4121234   1.3347973  -4.0684522
  14   1.4121237   1.3347973   1.3779611
  14   0.0715993  -2.7334700  -2.7206234
  14   0.0715996  -2.7334699   2.7257898
  14   0.0716003   2.7129434  -2.7206234
  14   0.0716006   2.7129435   2.7257899
  14  -4.0718786  -1.3664418  -1.3231674
  14  -4.0718783  -1.3664417   4.1232458
  14  -4.0718776   4.0799716  -1.3231674
  14  -4.0718773   4.0799717   4.1232459
  14   1.3745348  -1.3664407  -1.3231671
  14   1.3745351  -1.3664407   4.1232461
  14   1.3745358   4.0799726  -1.3231671
  14   1.3745361   4.0799727   4.1232462
  14  -2.7105066  -0.0581688  -2.7207254
  14  -2.7105063  -0.0581687   2.7256879
  14   2.7359068  -0.0581678  -2.7207251
  14   2.7359071  -0.0581677   2.7256882
  14  -1.4003402  -4.0380974  -1.4346996
  14  -1.4003399  -4.0380973   4.0117137
  14  -1.4003392   1.4083160  -1.4346995
  14  -1.4003389   1.4083161   4.0117138
  14   4.0460732  -4.0380964  -1.4346992
  14   4.0460735  -4.0380963   4.0117140
  14   4.0460742   1.4083170  -1.4346992
  14   4.0460745   1.4083171   4.0117141
  14  -2.7103937  -2.7336703   0.0142034
  14  -2.7103927   2.7127431   0.0142035
  14   2.7360197  -2.7336693   0.0142037
  14   2.7360207   2.7127441   0.0142038
  14  -1.3382747  -1.4156970  -4.0358041
  14  -1.3382744  -1.4156969   1.4106091
  14  -1.3382737   4.0307164  -4.0358041
  14  -1.3382734   4.0307165   1.4106092
  14   4.1081386  -1.4156960  -4.0358038
  14   4.1081389  -1.4156959   1.4106094
  14   4.1081396   4.0307174  -4.0358038
  14   4.1081399   4.0307175   1.4106095
ATOMS   17
  32  -0.1098496   0.0892497  -0.0217996
  14  -4.0048334  -4.1561066  -4.0716648
  14  -4.0048331  -4.1561065   1.3747485
  14  -4.0048324   1.2903068  -4.0716647
  14  -4.0048321   1.2903069   1.3747486