# --- AXSF block for ---- iev =     8  freq =     133.146794 cm-1
ANIMSTEPS   30
ATOMS    1
  32  -0.0000530   0.0000419  -0.0000216
  14  -4.0337341  -4.0951741  -4.0663911
  14  -4.0337338  -4.0951740   1.3800222
  14  -4.0337331   1.3512393  -4.0663910
  14  -4.0337328   1.3512394   1.3800222
  14   1.4126792  -4.0951731  -4.0663908
  14   1.4126796  -4.0951730   1.3800225
  14   1.4126802   1.3512403  -4.0663907
  14   1.4126806   1.3512404   1.3800226
  14   0.0000657  -2.7762693  -2.7333078
  14   0.0000660  -2.7762692   2.7131055
  14   0.0000667   2.6701441  -2.7333077
  14   0.0000670   2.6701442   2.7131056
  14  -4.0964283  -1.3612935  -1.4326120
  14  -4.0964280  -1.3612934   4.0138013
  14  -4.0964273   4.0851199  -1.4326119
  14  -4.0964270   4.0851200   4.0138014
  14   1.3499851  -1.3612924  -1.4326117
  14   1.3499854  -1.3612924   4.0138016
  14   1.3499861   4.0851209  -1.4326116
  14   1.3499864   4.0851210   4.0138017
  14  -2.6727500  -0.0000544  -2.7130943
  14  -2.6727497  -0.0000543   2.7333190
  14   2.7736634  -0.0000534  -2.7130940
  14   2.7736637  -0.0000533   2.7333193
  14  -1.4026520  -4.0350314  -1.3300207
  14  -1.4026517  -4.0350313   4.1163926
  14  -1.4026510   1.4113820  -1.3300206
  14  -1.4026507   1.4113821   4.1163927
  14   4.0437614  -4.0350304  -1.3300204
  14   4.0437617  -4.0350303   4.1163929
  14   4.0437624   1.4113830  -1.3300203
  14   4.0437627   1.4113831   4.1163930
  14  -2.7736491  -2.6701590   0.0000243
  14  -2.7736481   2.7762544   0.0000244
  14   2.6727643  -2.6701580   0.0000246
  14   2.6727653   2.7762554   0.0000247
  14  -1.3599706  -1.4013574  -4.0426199
  14  -1.3599703  -1.4013573   1.4037934
  14  -1.3599696   4.0450560  -4.0426198
  14  -1.3599692   4.0450561   1.4037934
  14   4.0864428  -1.4013564  -4.0426196
  14   4.0864431  -1.4013563   1.4037937
  14   4.0864438   4.0450570  -4.0426195
  14   4.0864441   4.0450571   1.4037938
ATOMS    2
  32  -0.0001031   0.0000815  -0.0000418
  14  -4.0037441  -4.1239391  -4.0676319
  14  -4.0037438  -4.1239390   1.3787813
  14  -4.0037431   1.3224743  -4.0676319
  14  -4.0037428   1.3224744   1.3787814
  14   1.4426692  -4.1239381  -4.0676316
  14   1.4426695  -4.1239380   1.3787816
  14   1.4426702   1.3224753  -4.0676316
  14   1.4426705   1.3224754   1.3787817
  14   0.0001292  -2.8270129  -2.7429679
  14   0.0001295  -2.8270128   2.7034454
  14   0.0001302   2.6194005  -2.7429678
  14   0.0001305   2.6194006   2.7034454
  14  -4.1263901  -1.3421449  -1.4816660
  14  -4.1263898  -1.3421448   3.9647472
  14  -4.1263891   4.1042685  -1.4816659
  14  -4.1263888   4.1042686   3.9647473
  14   1.3200233  -1.3421439  -1.4816657
  14   1.3200236  -1.3421438   3.9647476
  14   1.3200243   4.1042695  -1.4816656
  14   1.3200246   4.1042696   3.9647476
  14  -2.6244985  -0.0001056  -2.7034243
  14  -2.6244982  -0.0001055   2.7429890
  14   2.8219149  -0.0001046  -2.7034240
  14   2.8219152  -0.0001045   2.7429893
  14  -1.4230536  -4.0062804  -1.2809666
  14  -1.4230533  -4.0062803   4.1654466
  14  -1.4230526   1.4401330  -1.2809665
  14  -1.4230523   1.4401331   4.1654467
  14   4.0233598  -4.0062794  -1.2809663
  14   4.0233601  -4.0062793   4.1654470
  14   4.0233608   1.4401340  -1.2809662
  14   4.0233611   1.4401341   4.1654470
  14  -2.8218865  -2.6194295   0.0000488
  14  -2.8218855   2.8269839   0.0000489
  14   2.6245269  -2.6194285   0.0000491
  14   2.6245279   2.8269849   0.0000492
  14  -1.3395548  -1.4205200  -4.0413700
  14  -1.3395545  -1.4205199   1.4050432
  14  -1.3395538   4.0258934  -4.0413700
  14  -1.3395535   4.0258935   1.4050433
  14   4.1068585  -1.4205190  -4.0413697
  14   4.1068588  -1.4205189   1.4050436
  14   4.1068595   4.0258944  -4.0413696
  14   4.1068598   4.0258945   1.4050436
ATOMS    3
  32  -0.0001486   0.0001176  -0.0000602
  14  -3.9764355  -4.1501324  -4.0687619
  14  -3.9764352  -4.1501323   1.3776514
  14  -3.9764345   1.2962810  -4.0687618
  14  -3.9764342   1.2962811   1.3776515
  14   1.4699779  -4.1501314  -4.0687615
  14   1.4699782  -4.1501313   1.3776517
  14   1.4699789   1.2962820  -4.0687615
  14   1.4699792   1.2962821   1.3776518
  14   0.0001871  -2.8732197  -2.7517644
  14   0.0001874  -2.8732196   2.6946489
  14   0.0001881   2.5731937  -2.7517643
  14   0.0001884   2.5731938   2.6946490
  14  -4.1536732  -1.3247084  -1.5263343
  14  -4.1536728  -1.3247083   3.9200790
  14  -4.1536721   4.1217050  -1.5263342
  14  -4.1536718   4.1217051   3.9200791
  14   1.2927402  -1.3247074  -1.5263340
  14   1.2927405  -1.3247073   3.9200793
  14   1.2927412   4.1217060  -1.5263339
  14   1.2927415   4.1217061   3.9200794
  14  -2.5805610  -0.0001521  -2.6946188
  14  -2.5805607  -0.0001520   2.7517944
  14   2.8658524  -0.0001511  -2.6946185
  14   2.8658527  -0.0001510   2.7517947
  14  -1.4416312  -3.9801000  -1.2362984
  14  -1.4416309  -3.9800999   4.2101149
  14  -1.4416302   1.4663134  -1.2362983
  14  -1.4416299   1.4663135   4.2101150
  14   4.0047822  -3.9800990  -1.2362980
  14   4.0047825  -3.9800989   4.2101152
  14   4.0047832   1.4663144  -1.2362980
  14   4.0047835   1.4663145   4.2101153
  14  -2.8658112  -2.5732355   0.0000712
  14  -2.8658102   2.8731779   0.0000712
  14   2.5806022  -2.5732345   0.0000715
  14   2.5806032   2.8731789   0.0000716
  14  -1.3209644  -1.4379693  -4.0402319
  14  -1.3209641  -1.4379692   1.4061814
  14  -1.3209634   4.0084441  -4.0402318
  14  -1.3209631   4.0084441   1.4061814
  14   4.1254489  -1.4379683  -4.0402316
  14   4.1254493  -1.4379682   1.4061817
  14   4.1254499   4.0084451  -4.0402315
  14   4.1254503   4.0084451   1.4061817
ATOMS    4
  32  -0.0001877   0.0001486  -0.0000759
  14  -3.9530016  -4.1726090  -4.0697314
  14  -3.9530013  -4.1726090   1.3766818
  14  -3.9530006   1.2738043  -4.0697314
  14  -3.9530003   1.2738044   1.3766819
  14   1.4934117  -4.1726080  -4.0697311
  14   1.4934121  -4.1726080   1.3766821
  14   1.4934127   1.2738054  -4.0697311
  14   1.4934131   1.2738054   1.3766822
  14   0.0002367  -2.9128702  -2.7593127
  14   0.0002371  -2.9128701   2.6871006
  14   0.0002377   2.5335432  -2.7593126
  14   0.0002381   2.5335433   2.6871006
  14  -4.1770850  -1.3097459  -1.5646646
  14  -4.1770847  -1.3097459   3.8817487
  14  -4.1770840   4.1366675  -1.5646645
  14  -4.1770837   4.1366675   3.8817488
  14   1.2693284  -1.3097449  -1.5646643
  14   1.2693287  -1.3097449   3.8817490
  14   1.2693294   4.1366685  -1.5646642
  14   1.2693297   4.1366685   3.8817491
  14  -2.5428578  -0.0001921  -2.6870628
  14  -2.5428575  -0.0001920   2.7593505
  14   2.9035556  -0.0001911  -2.6870625
  14   2.9035559  -0.0001910   2.7593508
  14  -1.4575728  -3.9576343  -1.1979681
  14  -1.4575725  -3.9576342   4.2484452
  14  -1.4575718   1.4887791  -1.1979680
  14  -1.4575715   1.4887792   4.2484453
  14   3.9888406  -3.9576333  -1.1979678
  14   3.9888409  -3.9576332   4.2484455
  14   3.9888416   1.4887801  -1.1979677
  14   3.9888419   1.4887802   4.2484456
  14  -2.9035033  -2.5335960   0.0000903
  14  -2.9035023   2.9128174   0.0000904
  14   2.5429100  -2.5335950   0.0000906
  14   2.5429110   2.9128184   0.0000907
  14  -1.3050118  -1.4529428  -4.0392553
  14  -1.3050115  -1.4529427   1.4071580
  14  -1.3050108   3.9934706  -4.0392552
  14  -1.3050105   3.9934707   1.4071581
  14   4.1414016  -1.4529418  -4.0392550
  14   4.1414019  -1.4529417   1.4071583
  14   4.1414026   3.9934716  -4.0392549
  14   4.1414029   3.9934717   1.4071584
ATOMS    5
  32  -0.0002186   0.0001731  -0.0000884
  14  -3.9344668  -4.1903868  -4.0704983
  14  -3.9344665  -4.1903867   1.3759149
  14  -3.9344658   1.2560266  -4.0704983
  14  -3.9344655   1.2560267   1.3759150
  14   1.5119466  -4.1903858  -4.0704980
  14   1.5119469  -4.1903857   1.3759152
  14   1.5119476   1.2560276  -4.0704980
  14   1.5119479   1.2560277   1.3759153
  14   0.0002760  -2.9442315  -2.7652830
  14   0.0002763  -2.9442314   2.6811302
  14   0.0002770   2.5021819  -2.7652830
  14   0.0002773   2.5021820   2.6811303
  14  -4.1956024  -1.2979115  -1.5949816
  14  -4.1956021  -1.2979114   3.8514316
  14  -4.1956014   4.1485019  -1.5949816
  14  -4.1956011   4.1485020   3.8514317
  14   1.2508110  -1.2979105  -1.5949813
  14   1.2508113  -1.2979104   3.8514319
  14   1.2508120   4.1485029  -1.5949813
  14   1.2508123   4.1485030   3.8514320
  14  -2.5130368  -0.0002237  -2.6810864
  14  -2.5130365  -0.0002236   2.7653269
  14   2.9333766  -0.0002227  -2.6810861
  14   2.9333769  -0.0002226   2.7653272
  14  -1.4701817  -3.9398652  -1.1676510
  14  -1.4701814  -3.9398652   4.2787623
  14  -1.4701807   1.5065482  -1.1676509
  14  -1.4701804   1.5065482   4.2787623
  14   3.9762317  -3.9398642  -1.1676507
  14   3.9762320  -3.9398642   4.2787626
  14   3.9762327   1.5065492  -1.1676506
  14   3.9762330   1.5065492   4.2787627
  14  -2.9333157  -2.5022434   0.0001055
  14  -2.9333147   2.9441700   0.0001056
  14   2.5130977  -2.5022424   0.0001058
  14   2.5130987   2.9441710   0.0001059
  14  -1.2923942  -1.4647859  -4.0384828
  14  -1.2923939  -1.4647858   1.4079304
  14  -1.2923932   3.9816275  -4.0384828
  14  -1.2923929   3.9816275   1.4079305
  14   4.1540192  -1.4647849  -4.0384825
  14   4.1540195  -1.4647848   1.4079308
  14   4.1540202   3.9816285  -4.0384824
  14   4.1540205   3.9816285   1.4079308
ATOMS    6
  32  -0.0002400   0.0001901  -0.0000970
  14  -3.9216410  -4.2026887  -4.0710290
  14  -3.9216407  -4.2026886   1.3753843
  14  -3.9216400   1.2437247  -4.0710289
  14  -3.9216397   1.2437248   1.3753843
  14   1.5247723  -4.2026877  -4.0710287
  14   1.5247727  -4.2026876   1.3753846
  14   1.5247733   1.2437257  -4.0710286
  14   1.5247737   1.2437258   1.3753846
  14   0.0003032  -2.9659329  -2.7694144
  14   0.0003035  -2.9659328   2.6769989
  14   0.0003042   2.4804805  -2.7694143
  14   0.0003045   2.4804806   2.6769990
  14  -4.2084161  -1.2897223  -1.6159605
  14  -4.2084158  -1.2897222   3.8304528
  14  -4.2084151   4.1566911  -1.6159604
  14  -4.2084148   4.1566912   3.8304529
  14   1.2379972  -1.2897213  -1.6159602
  14   1.2379975  -1.2897212   3.8304531
  14   1.2379982   4.1566921  -1.6159601
  14   1.2379985   4.1566922   3.8304532
  14  -2.4924011  -0.0002456  -2.6769508
  14  -2.4924008  -0.0002455   2.7694624
  14   2.9540122  -0.0002446  -2.6769505
  14   2.9540126  -0.0002445   2.7694627
  14  -1.4789069  -3.9275694  -1.1466722
  14  -1.4789065  -3.9275693   4.2997411
  14  -1.4789059   1.5188440  -1.1466721
  14  -1.4789055   1.5188441   4.2997412
  14   3.9675065  -3.9275684  -1.1466718
  14   3.9675068  -3.9275683   4.2997414
  14   3.9675075   1.5188450  -1.1466718
  14   3.9675078   1.5188451   4.2997415
  14  -2.9539453  -2.4805480   0.0001160
  14  -2.9539443   2.9658654   0.0001161
  14   2.4924681  -2.4805470   0.0001163
  14   2.4924691   2.9658664   0.0001164
  14  -1.2836631  -1.4729812  -4.0379483
  14  -1.2836628  -1.4729811   1.4084650
  14  -1.2836621   3.9734322  -4.0379482
  14  -1.2836617   3.9734323   1.4084650
  14   4.1627503  -1.4729802  -4.0379480
  14   4.1627506  -1.4729801   1.4084653
  14   4.1627513   3.9734332  -4.0379479
  14   4.1627516   3.9734333   1.4084654
ATOMS    7
  32  -0.0002509   0.0001987  -0.0001014
  14  -3.9150849  -4.2089771  -4.0713003
  14  -3.9150846  -4.2089770   1.3751130
  14  -3.9150839   1.2374363  -4.0713002
  14  -3.9150836   1.2374364   1.3751131
  14   1.5313285  -4.2089761  -4.0713000
  14   1.5313288  -4.2089760   1.3751133
  14   1.5313295   1.2374373  -4.0712999
  14   1.5313298   1.2374374   1.3751134
  14   0.0003171  -2.9770260  -2.7715262
  14   0.0003174  -2.9770259   2.6748871
  14   0.0003181   2.4693874  -2.7715261
  14   0.0003184   2.4693874   2.6748872
  14  -4.2149661  -1.2855362  -1.6266843
  14  -4.2149658  -1.2855361   3.8197290
  14  -4.2149651   4.1608772  -1.6266842
  14  -4.2149648   4.1608773   3.8197291
  14   1.2314472  -1.2855352  -1.6266840
  14   1.2314476  -1.2855351   3.8197293
  14   1.2314482   4.1608782  -1.6266839
  14   1.2314486   4.1608783   3.8197294
  14  -2.4818528  -0.0002567  -2.6748369
  14  -2.4818525  -0.0002567   2.7715764
  14   2.9645606  -0.0002557  -2.6748366
  14   2.9645609  -0.0002557   2.7715767
  14  -1.4833669  -3.9212841  -1.1359484
  14  -1.4833666  -3.9212840   4.3104649
  14  -1.4833659   1.5251293  -1.1359483
  14  -1.4833656   1.5251294   4.3104650
  14   3.9630465  -3.9212831  -1.1359481
  14   3.9630468  -3.9212830   4.3104652
  14   3.9630475   1.5251303  -1.1359480
  14   3.9630478   1.5251304   4.3104653
  14  -2.9644906  -2.4694580   0.0001213
  14  -2.9644896   2.9769554   0.0001214
  14   2.4819228  -2.4694570   0.0001217
  14   2.4819238   2.9769564   0.0001217
  14  -1.2791999  -1.4771703  -4.0376751
  14  -1.2791996  -1.4771702   1.4087382
  14  -1.2791989   3.9692431  -4.0376750
  14  -1.2791986   3.9692431   1.4087383
  14   4.1672134  -1.4771693  -4.0376748
  14   4.1672137  -1.4771692   1.4087385
  14   4.1672144   3.9692441  -4.0376747
  14   4.1672147   3.9692441   1.4087386
ATOMS    8
  32  -0.0002509   0.0001987  -0.0001014
  14  -3.9150849  -4.2089771  -4.0713003
  14  -3.9150846  -4.2089770   1.3751130
  14  -3.9150839   1.2374363  -4.0713002
  14  -3.9150836   1.2374364   1.3751131
  14   1.5313285  -4.2089761  -4.0713000
  14   1.5313288  -4.2089760   1.3751133
  14   1.5313295   1.2374373  -4.0712999
  14   1.5313298   1.2374374   1.3751134
  14   0.0003171  -2.9770260  -2.7715262
  14   0.0003174  -2.9770259   2.6748871
  14   0.0003181   2.4693874  -2.7715261
  14   0.0003184   2.4693874   2.6748872
  14  -4.2149661  -1.2855362  -1.6266843
  14  -4.2149658  -1.2855361   3.8197290
  14  -4.2149651   4.1608772  -1.6266842
  14  -4.2149648   4.1608773   3.8197291
  14   1.2314472  -1.2855352  -1.6266840
  14   1.2314476  -1.2855351   3.8197293
  14   1.2314482   4.1608782  -1.6266839
  14   1.2314486   4.1608783   3.8197294
  14  -2.4818528  -0.0002567  -2.6748369
  14  -2.4818525  -0.0002567   2.7715764
  14   2.9645606  -0.0002557  -2.6748366
  14   2.9645609  -0.0002557   2.7715767
  14  -1.4833669  -3.9212841  -1.1359484
  14  -1.4833666  -3.9212840   4.3104649
  14  -1.4833659   1.5251293  -1.1359483
  14  -1.4833656   1.5251294   4.3104650
  14   3.9630465  -3.9212831  -1.1359481
  14   3.9630468  -3.9212830   4.3104652
  14   3.9630475   1.5251303  -1.1359480
  14   3.9630478   1.5251304   4.3104653
  14  -2.9644906  -2.4694580   0.0001213
  14  -2.9644896   2.9769554   0.0001214
  14   2.4819228  -2.4694570   0.0001217
  14   2.4819238   2.9769564   0.0001217
  14  -1.2791999  -1.4771703  -4.0376751
  14  -1.2791996  -1.4771702   1.4087382
  14  -1.2791989   3.9692431  -4.0376750
  14  -1.2791986   3.9692431   1.4087383
  14   4.1672134  -1.4771693  -4.0376748
  14   4.1672137  -1.4771692   1.4087385
  14   4.1672144   3.9692441  -4.0376747
  14   4.1672147   3.9692441   1.4087386
ATOMS    9
  32  -0.0002400   0.0001901  -0.0000970
  14  -3.9216410  -4.2026887  -4.0710290
  14  -3.9216407  -4.2026886   1.3753843
  14  -3.9216400   1.2437247  -4.0710289
  14  -3.9216397   1.2437248   1.3753843
  14   1.5247723  -4.2026877  -4.0710287
  14   1.5247727  -4.2026876   1.3753846
  14   1.5247733   1.2437257  -4.0710286
  14   1.5247737   1.2437258   1.3753846
  14   0.0003032  -2.9659329  -2.7694144
  14   0.0003035  -2.9659328   2.6769989
  14   0.0003042   2.4804805  -2.7694143
  14   0.0003045   2.4804806   2.6769990
  14  -4.2084161  -1.2897223  -1.6159605
  14  -4.2084158  -1.2897222   3.8304528
  14  -4.2084151   4.1566911  -1.6159604
  14  -4.2084148   4.1566912   3.8304529
  14   1.2379972  -1.2897213  -1.6159602
  14   1.2379975  -1.2897212   3.8304531
  14   1.2379982   4.1566921  -1.6159601
  14   1.2379985   4.1566922   3.8304532
  14  -2.4924011  -0.0002456  -2.6769508
  14  -2.4924008  -0.0002455   2.7694624
  14   2.9540122  -0.0002446  -2.6769505
  14   2.9540126  -0.0002445   2.7694627
  14  -1.4789069  -3.9275694  -1.1466722
  14  -1.4789065  -3.9275693   4.2997411
  14  -1.4789059   1.5188440  -1.1466721
  14  -1.4789055   1.5188441   4.2997412
  14   3.9675065  -3.9275684  -1.1466718
  14   3.9675068  -3.9275683   4.2997414
  14   3.9675075   1.5188450  -1.1466718
  14   3.9675078   1.5188451   4.2997415
  14  -2.9539453  -2.4805480   0.0001160
  14  -2.9539443   2.9658654   0.0001161
  14   2.4924681  -2.4805470   0.0001163
  14   2.4924691   2.9658664   0.0001164
  14  -1.2836631  -1.4729812  -4.0379483
  14  -1.2836628  -1.4729811   1.4084650
  14  -1.2836621   3.9734322  -4.0379482
  14  -1.2836617   3.9734323   1.4084650
  14   4.1627503  -1.4729802  -4.0379480
  14   4.1627506  -1.4729801   1.4084653
  14   4.1627513   3.9734332  -4.0379479
  14   4.1627516   3.9734333   1.4084654
ATOMS   10
  32  -0.0002186   0.0001731  -0.0000884
  14  -3.9344668  -4.1903868  -4.0704983
  14  -3.9344665  -4.1903867   1.3759149
  14  -3.9344658   1.2560266  -4.0704983
  14  -3.9344655   1.2560267   1.3759150
  14   1.5119466  -4.1903858  -4.0704980
  14   1.5119469  -4.1903857   1.3759152
  14   1.5119476   1.2560276  -4.0704980
  14   1.5119479   1.2560277   1.3759153
  14   0.0002760  -2.9442315  -2.7652830
  14   0.0002763  -2.9442314   2.6811302
  14   0.0002770   2.5021819  -2.7652830
  14   0.0002773   2.5021820   2.6811303
  14  -4.1956024  -1.2979115  -1.5949816
  14  -4.1956021  -1.2979114   3.8514316
  14  -4.1956014   4.1485019  -1.5949816
  14  -4.1956011   4.1485020   3.8514317
  14   1.2508110  -1.2979105  -1.5949813
  14   1.2508113  -1.2979104   3.8514319
  14   1.2508120   4.1485029  -1.5949813
  14   1.2508123   4.1485030   3.8514320
  14  -2.5130368  -0.0002237  -2.6810864
  14  -2.5130365  -0.0002236   2.7653269
  14   2.9333766  -0.0002227  -2.6810861
  14   2.9333769  -0.0002226   2.7653272
  14  -1.4701817  -3.9398652  -1.1676510
  14  -1.4701814  -3.9398652   4.2787623
  14  -1.4701807   1.5065482  -1.1676509
  14  -1.4701804   1.5065482   4.2787623
  14   3.9762317  -3.9398642  -1.1676507
  14   3.9762320  -3.9398642   4.2787626
  14   3.9762327   1.5065492  -1.1676506
  14   3.9762330   1.5065492   4.2787627
  14  -2.9333157  -2.5022434   0.0001055
  14  -2.9333147   2.9441700   0.0001056
  14   2.5130977  -2.5022424   0.0001058
  14   2.5130987   2.9441710   0.0001059
  14  -1.2923942  -1.4647859  -4.0384828
  14  -1.2923939  -1.4647858   1.4079304
  14  -1.2923932   3.9816275  -4.0384828
  14  -1.2923929   3.9816275   1.4079305
  14   4.1540192  -1.4647849  -4.0384825
  14   4.1540195  -1.4647848   1.4079308
  14   4.1540202   3.9816285  -4.0384824
  14   4.1540205   3.9816285   1.4079308
ATOMS   11
  32  -0.0001877   0.0001486  -0.0000759
  14  -3.9530016  -4.1726090  -4.0697314
  14  -3.9530013  -4.1726090   1.3766818
  14  -3.9530006   1.2738043  -4.0697314
  14  -3.9530003   1.2738044   1.3766819
  14   1.4934117  -4.1726080  -4.0697311
  14   1.4934121  -4.1726080   1.3766821
  14   1.4934127   1.2738054  -4.0697311
  14   1.4934131   1.2738054   1.3766822
  14   0.0002367  -2.9128702  -2.7593127
  14   0.0002371  -2.9128701   2.6871006
  14   0.0002377   2.5335432  -2.7593126
  14   0.0002381   2.5335433   2.6871006
  14  -4.1770850  -1.3097459  -1.5646646
  14  -4.1770847  -1.3097459   3.8817487
  14  -4.1770840   4.1366675  -1.5646645
  14  -4.1770837   4.1366675   3.8817488
  14   1.2693284  -1.3097449  -1.5646643
  14   1.2693287  -1.3097449   3.8817490
  14   1.2693294   4.1366685  -1.5646642
  14   1.2693297   4.1366685   3.8817491
  14  -2.5428578  -0.0001921  -2.6870628
  14  -2.5428575  -0.0001920   2.7593505
  14   2.9035556  -0.0001911  -2.6870625
  14   2.9035559  -0.0001910   2.7593508
  14  -1.4575728  -3.9576343  -1.1979681
  14  -1.4575725  -3.9576342   4.2484452
  14  -1.4575718   1.4887791  -1.1979680
  14  -1.4575715   1.4887792   4.2484453
  14   3.9888406  -3.9576333  -1.1979678
  14   3.9888409  -3.9576332   4.2484455
  14   3.9888416   1.4887801  -1.1979677
  14   3.9888419   1.4887802   4.2484456
  14  -2.9035033  -2.5335960   0.0000903
  14  -2.9035023   2.9128174   0.0000904
  14   2.5429100  -2.5335950   0.0000906
  14   2.5429110   2.9128184   0.0000907
  14  -1.3050118  -1.4529428  -4.0392553
  14  -1.3050115  -1.4529427   1.4071580
  14  -1.3050108   3.9934706  -4.0392552
  14  -1.3050105   3.9934707   1.4071581
  14   4.1414016  -1.4529418  -4.0392550
  14   4.1414019  -1.4529417   1.4071583
  14   4.1414026   3.9934716  -4.0392549
  14   4.1414029   3.9934717   1.4071584
ATOMS   12
  32  -0.0001486   0.0001176  -0.0000602
  14  -3.9764355  -4.1501324  -4.0687619
  14  -3.9764352  -4.1501323   1.3776514
  14  -3.9764345   1.2962810  -4.0687618
  14  -3.9764342   1.2962811   1.3776515
  14   1.4699779  -4.1501314  -4.0687615
  14   1.4699782  -4.1501313   1.3776517
  14   1.4699789   1.2962820  -4.0687615
  14   1.4699792   1.2962821   1.3776518
  14   0.0001871  -2.8732197  -2.7517644
  14   0.0001874  -2.8732196   2.6946489
  14   0.0001881   2.5731937  -2.7517643
  14   0.0001884   2.5731938   2.6946490
  14  -4.1536732  -1.3247084  -1.5263343
  14  -4.1536728  -1.3247083   3.9200790
  14  -4.1536721   4.1217050  -1.5263342
  14  -4.1536718   4.1217051   3.9200791
  14   1.2927402  -1.3247074  -1.5263340
  14   1.2927405  -1.3247073   3.9200793
  14   1.2927412   4.1217060  -1.5263339
  14   1.2927415   4.1217061   3.9200794
  14  -2.5805610  -0.0001521  -2.6946188
  14  -2.5805607  -0.0001520   2.7517944
  14   2.8658524  -0.0001511  -2.6946185
  14   2.8658527  -0.0001510   2.7517947
  14  -1.4416312  -3.9801000  -1.2362984
  14  -1.4416309  -3.9800999   4.2101149
  14  -1.4416302   1.4663134  -1.2362983
  14  -1.4416299   1.4663135   4.2101150
  14   4.0047822  -3.9800990  -1.2362980
  14   4.0047825  -3.9800989   4.2101152
  14   4.0047832   1.4663144  -1.2362980
  14   4.0047835   1.4663145   4.2101153
  14  -2.8658112  -2.5732355   0.0000712
  14  -2.8658102   2.8731779   0.0000712
  14   2.5806022  -2.5732345   0.0000715
  14   2.5806032   2.8731789   0.0000716
  14  -1.3209644  -1.4379693  -4.0402319
  14  -1.3209641  -1.4379692   1.4061814
  14  -1.3209634   4.0084441  -4.0402318
  14  -1.3209631   4.0084441   1.4061814
  14   4.1254489  -1.4379683  -4.0402316
  14   4.1254493  -1.4379682   1.4061817
  14   4.1254499   4.0084451  -4.0402315
  14   4.1254503   4.0084451   1.4061817
ATOMS   13
  32  -0.0001031   0.0000815  -0.0000418
  14  -4.0037441  -4.1239391  -4.0676319
  14  -4.0037438  -4.1239390   1.3787813
  14  -4.0037431   1.3224743  -4.0676319
  14  -4.0037428   1.3224744   1.3787814
  14   1.4426692  -4.1239381  -4.0676316
  14   1.4426695  -4.1239380   1.3787816
  14   1.4426702   1.3224753  -4.0676316
  14   1.4426705   1.3224754   1.3787817
  14   0.0001292  -2.8270129  -2.7429679
  14   0.0001295  -2.8270128   2.7034454
  14   0.0001302   2.6194005  -2.7429678
  14   0.0001305   2.6194006   2.7034454
  14  -4.1263901  -1.3421449  -1.4816660
  14  -4.1263898  -1.3421448   3.9647472
  14  -4.1263891   4.1042685  -1.4816659
  14  -4.1263888   4.1042686   3.9647473
  14   1.3200233  -1.3421439  -1.4816657
  14   1.3200236  -1.3421438   3.9647476
  14   1.3200243   4.1042695  -1.4816656
  14   1.3200246   4.1042696   3.9647476
  14  -2.6244985  -0.0001056  -2.7034243
  14  -2.6244982  -0.0001055   2.7429890
  14   2.8219149  -0.0001046  -2.7034240
  14   2.8219152  -0.0001045   2.7429893
  14  -1.4230536  -4.0062804  -1.2809666
  14  -1.4230533  -4.0062803   4.1654466
  14  -1.4230526   1.4401330  -1.2809665
  14  -1.4230523   1.4401331   4.1654467
  14   4.0233598  -4.0062794  -1.2809663
  14   4.0233601  -4.0062793   4.1654470
  14   4.0233608   1.4401340  -1.2809662
  14   4.0233611   1.4401341   4.1654470
  14  -2.8218865  -2.6194295   0.0000488
  14  -2.8218855   2.8269839   0.0000489
  14   2.6245269  -2.6194285   0.0000491
  14   2.6245279   2.8269849   0.0000492
  14  -1.3395548  -1.4205200  -4.0413700
  14  -1.3395545  -1.4205199   1.4050432
  14  -1.3395538   4.0258934  -4.0413700
  14  -1.3395535   4.0258935   1.4050433
  14   4.1068585  -1.4205190  -4.0413697
  14   4.1068588  -1.4205189   1.4050436
  14   4.1068595   4.0258944  -4.0413696
  14   4.1068598   4.0258945   1.4050436
ATOMS   14
  32  -0.0000530   0.0000419  -0.0000216
  14  -4.0337341  -4.0951741  -4.0663911
  14  -4.0337338  -4.0951740   1.3800222
  14  -4.0337331   1.3512393  -4.0663910
  14  -4.0337328   1.3512394   1.3800222
  14   1.4126792  -4.0951731  -4.0663908
  14   1.4126796  -4.0951730   1.3800225
  14   1.4126802   1.3512403  -4.0663907
  14   1.4126806   1.3512404   1.3800226
  14   0.0000657  -2.7762693  -2.7333078
  14   0.0000660  -2.7762692   2.7131055
  14   0.0000667   2.6701441  -2.7333077
  14   0.0000670   2.6701442   2.7131056
  14  -4.0964283  -1.3612935  -1.4326120
  14  -4.0964280  -1.3612934   4.0138013
  14  -4.0964273   4.0851199  -1.4326119
  14  -4.0964270   4.0851200   4.0138014
  14   1.3499851  -1.3612924  -1.4326117
  14   1.3499854  -1.3612924   4.0138016
  14   1.3499861   4.0851209  -1.4326116
  14   1.3499864   4.0851210   4.0138017
  14  -2.6727500  -0.0000544  -2.7130943
  14  -2.6727497  -0.0000543   2.7333190
  14   2.7736634  -0.0000534  -2.7130940
  14   2.7736637  -0.0000533   2.7333193
  14  -1.4026520  -4.0350314  -1.3300207
  14  -1.4026517  -4.0350313   4.1163926
  14  -1.4026510   1.4113820  -1.3300206
  14  -1.4026507   1.4113821   4.1163927
  14   4.0437614  -4.0350304  -1.3300204
  14   4.0437617  -4.0350303   4.1163929
  14   4.0437624   1.4113830  -1.3300203
  14   4.0437627   1.4113831   4.1163930
  14  -2.7736491  -2.6701590   0.0000243
  14  -2.7736481   2.7762544   0.0000244
  14   2.6727643  -2.6701580   0.0000246
  14   2.6727653   2.7762554   0.0000247
  14  -1.3599706  -1.4013574  -4.0426199
  14  -1.3599703  -1.4013573   1.4037934
  14  -1.3599696   4.0450560  -4.0426198
  14  -1.3599692   4.0450561   1.4037934
  14   4.0864428  -1.4013564  -4.0426196
  14   4.0864431  -1.4013563   1.4037937
  14   4.0864438   4.0450570  -4.0426195
  14   4.0864441   4.0450571   1.4037938
ATOMS   15
  32  -0.0000007   0.0000004  -0.0000005
  14  -4.0650947  -4.0650944  -4.0650935
  14  -4.0650944  -4.0650943   1.3813197
  14  -4.0650937   1.3813190  -4.0650935
  14  -4.0650934   1.3813191   1.3813198
  14   1.3813187  -4.0650934  -4.0650932
  14   1.3813190  -4.0650933   1.3813200
  14   1.3813197   1.3813200  -4.0650932
  14   1.3813200   1.3813201   1.3813201
  14  -0.0000008  -2.7232066  -2.7232061
  14  -0.0000004  -2.7232065   2.7232072
  14   0.0000002   2.7232068  -2.7232060
  14   0.0000006   2.7232069   2.7232072
  14  -4.0650971  -1.3813171  -1.3813161
  14  -4.0650968  -1.3813170   4.0650972
  14  -4.0650961   4.0650963  -1.3813160
  14  -4.0650958   4.0650964   4.0650973
  14   1.3813162  -1.3813161  -1.3813157
  14   1.3813165  -1.3813160   4.0650975
  14   1.3813172   4.0650973  -1.3813157
  14   1.3813175   4.0650974   4.0650976
  14  -2.7232067  -0.0000010  -2.7232062
  14  -2.7232064  -0.0000009   2.7232070
  14   2.7232067   0.0000000  -2.7232059
  14   2.7232070   0.0000001   2.7232073
  14  -1.3813179  -4.0650963  -1.3813166
  14  -1.3813176  -4.0650962   4.0650967
  14  -1.3813169   1.3813171  -1.3813165
  14  -1.3813166   1.3813171   4.0650968
  14   4.0650954  -4.0650953  -1.3813163
  14   4.0650957  -4.0650952   4.0650970
  14   4.0650964   1.3813181  -1.3813162
  14   4.0650968   1.3813181   4.0650971
  14  -2.7232071  -2.7232070  -0.0000013
  14  -2.7232061   2.7232064  -0.0000013
  14   2.7232063  -2.7232060  -0.0000010
  14   2.7232073   2.7232074  -0.0000009
  14  -1.3813193  -1.3813190  -4.0439269
  14  -1.3813190  -1.3813189   1.4024864
  14  -1.3813183   4.0650944  -4.0439268
  14  -1.3813180   4.0650945   1.4024865
  14   4.0650940  -1.3813180  -4.0439266
  14   4.0650944  -1.3813179   1.4024867
  14   4.0650951   4.0650954  -4.0439265
  14   4.0650954   4.0650955   1.4024868
ATOMS   16
  32   0.0000516  -0.0000411   0.0000206
  14  -4.0964553  -4.0350147  -4.0637960
  14  -4.0964550  -4.0350146   1.3826173
  14  -4.0964543   1.4113987  -4.0637959
  14  -4.0964540   1.4113987   1.3826174
  14   1.3499581  -4.0350137  -4.0637957
  14   1.3499584  -4.0350136   1.3826176
  14   1.3499591   1.4113997  -4.0637956
  14   1.3499594   1.4113997   1.3826177
  14  -0.0000672  -2.6701438  -2.7131045
  14  -0.0000669  -2.6701438   2.7333088
  14  -0.0000662   2.7762696  -2.7131044
  14  -0.0000659   2.7762696   2.7333089
  14  -4.0337660  -1.4013408  -1.3300201
  14  -4.0337657  -1.4013407   4.1163931
  14  -4.0337650   4.0450726  -1.3300201
  14  -4.0337647   4.0450727   4.1163932
  14   1.4126474  -1.4013398  -1.3300198
  14   1.4126477  -1.4013397   4.1163934
  14   1.4126484   4.0450736  -1.3300197
  14   1.4126487   4.0450737   4.1163935
  14  -2.7736634   0.0000525  -2.7333182
  14  -2.7736631   0.0000526   2.7130951
  14   2.6727500   0.0000535  -2.7333179
  14   2.6727503   0.0000536   2.7130954
  14  -1.3599839  -4.0951613  -1.4326125
  14  -1.3599836  -4.0951612   4.0138008
  14  -1.3599829   1.3512521  -1.4326124
  14  -1.3599826   1.3512522   4.0138008
  14   4.0864295  -4.0951603  -1.4326122
  14   4.0864298  -4.0951602   4.0138011
  14   4.0864305   1.3512531  -1.4326121
  14   4.0864308   1.3512532   4.0138011
  14  -2.6727652  -2.7762550  -0.0000270
  14  -2.6727642   2.6701584  -0.0000269
  14   2.7736482  -2.7762540  -0.0000267
  14   2.7736492   2.6701594  -0.0000266
  14  -1.4026681  -1.3612806  -4.0452339
  14  -1.4026678  -1.3612805   1.4011794
  14  -1.4026671   4.0851328  -4.0452338
  14  -1.4026668   4.0851329   1.4011795
  14   4.0437453  -1.3612796  -4.0452336
  14   4.0437456  -1.3612795   1.4011797
  14   4.0437463   4.0851338  -4.0452335
  14   4.0437466   4.0851339   1.4011798
ATOMS   17
  32   0.0001016  -0.0000807   0.0000408
  14  -4.1264453  -4.0062497  -4.0625551
  14  -4.1264450  -4.0062496   1.3838582
  14  -4.1264443   1.4401637  -4.0625550
  14  -4.1264440   1.4401638   1.3838582