# --- AXSF block for ---- iev =     4  freq =     107.766401 cm-1
ANIMSTEPS   30
ATOMS    1
  32  -0.0106862   0.0008622   0.0573921
  14  -4.0309652  -4.0397463  -4.0826870
  14  -4.0309649  -4.0397462   1.3637263
  14  -4.0309642   1.4066671  -4.0826869
  14  -4.0309639   1.4066672   1.3637263
  14   1.4154481  -4.0397453  -4.0826867
  14   1.4154485  -4.0397452   1.3637266
  14   1.4154491   1.4066681  -4.0826866
  14   1.4154495   1.4066682   1.3637267
  14   0.0136219  -2.7233639  -2.7362219
  14   0.0136222  -2.7233639   2.7101914
  14   0.0136229   2.7230494  -2.7362218
  14   0.0136232   2.7230495   2.7101914
  14  -4.0946444  -1.3442145  -1.3872822
  14  -4.0946441  -1.3442144   4.0591311
  14  -4.0946434   4.1021989  -1.3872821
  14  -4.0946431   4.1021990   4.0591311
  14   1.3517690  -1.3442135  -1.3872819
  14   1.3517693  -1.3442134   4.0591314
  14   1.3517700   4.1021999  -1.3872818
  14   1.3517703   4.1022000   4.0591314
  14  -2.7207178  -0.0010995  -2.7362649
  14  -2.7207175  -0.0010994   2.7101483
  14   2.7256955  -0.0010985  -2.7362646
  14   2.7256959  -0.0010984   2.7101486
  14  -1.3481080  -4.0907969  -1.3998909
  14  -1.3481077  -4.0907968   4.0465224
  14  -1.3481070   1.3556165  -1.3998908
  14  -1.3481067   1.3556166   4.0465225
  14   4.0983054  -4.0907959  -1.3998906
  14   4.0983057  -4.0907958   4.0465227
  14   4.0983064   1.3556175  -1.3998905
  14   4.0983067   1.3556176   4.0465228
  14  -2.7208424  -2.7234398  -0.0731644
  14  -2.7208414   2.7229736  -0.0731643
  14   2.7255709  -2.7234388  -0.0731641
  14   2.7255719   2.7229746  -0.0731640
  14  -1.4099777  -1.4187894  -4.0508754
  14  -1.4099774  -1.4187893   1.3955379
  14  -1.4099767   4.0276240  -4.0508753
  14  -1.4099764   4.0276241   1.3955380
  14   4.0364357  -1.4187884  -4.0508751
  14   4.0364360  -1.4187883   1.3955382
  14   4.0364367   4.0276250  -4.0508750
  14   4.0364370   4.0276251   1.3955383
ATOMS    2
  32  -0.0209046   0.0016863   0.1122763
  14  -3.9983274  -4.0155061  -4.0995115
  14  -3.9983271  -4.0155060   1.3469017
  14  -3.9983264   1.4309073  -4.0995115
  14  -3.9983261   1.4309074   1.3469018
  14   1.4480860  -4.0155051  -4.0995112
  14   1.4480863  -4.0155050   1.3469020
  14   1.4480870   1.4309083  -4.0995112
  14   1.4480873   1.4309084   1.3469021
  14   0.0266492  -2.7235145  -2.7486688
  14   0.0266495  -2.7235144   2.6977444
  14   0.0266502   2.7228989  -2.7486688
  14   0.0266505   2.7228990   2.6977445
  14  -4.1229002  -1.3087335  -1.3929876
  14  -4.1228999  -1.3087334   4.0534257
  14  -4.1228992   4.1376799  -1.3929875
  14  -4.1228989   4.1376800   4.0534257
  14   1.3235131  -1.3087325  -1.3929873
  14   1.3235135  -1.3087324   4.0534260
  14   1.3235141   4.1376809  -1.3929872
  14   1.3235145   4.1376810   4.0534260
  14  -2.7183378  -0.0021500  -2.7487529
  14  -2.7183375  -0.0021499   2.6976603
  14   2.7280756  -0.0021490  -2.7487526
  14   2.7280759  -0.0021489   2.6976607
  14  -1.3163494  -4.1153742  -1.4176534
  14  -1.3163491  -4.1153741   4.0287599
  14  -1.3163484   1.3310392  -1.4176533
  14  -1.3163481   1.3310392   4.0287600
  14   4.1300639  -4.1153732  -1.4176531
  14   4.1300642  -4.1153731   4.0287602
  14   4.1300649   1.3310402  -1.4176530
  14   4.1300653   1.3310402   4.0287603
  14  -2.7185811  -2.7236624  -0.1431299
  14  -2.7185801   2.7227510  -0.1431299
  14   2.7278323  -2.7236614  -0.1431296
  14   2.7278333   2.7227520  -0.1431295
  14  -1.4373835  -1.4546221  -4.0575202
  14  -1.4373832  -1.4546221   1.3888931
  14  -1.4373825   3.9917912  -4.0575201
  14  -1.4373822   3.9917913   1.3888931
  14   4.0090299  -1.4546211  -4.0575199
  14   4.0090302  -1.4546211   1.3888934
  14   4.0090309   3.9917922  -4.0575198
  14   4.0090312   3.9917923   1.3888935
ATOMS    3
  32  -0.0302095   0.0024368   0.1622536
  14  -3.9686076  -3.9934331  -4.1148319
  14  -3.9686072  -3.9934330   1.3315814
  14  -3.9686066   1.4529803  -4.1148318
  14  -3.9686062   1.4529804   1.3315815
  14   1.4778058  -3.9934321  -4.1148316
  14   1.4778061  -3.9934320   1.3315817
  14   1.4778068   1.4529813  -4.1148315
  14   1.4778071   1.4529814   1.3315818
  14   0.0385118  -2.7236515  -2.7600029
  14   0.0385121  -2.7236514   2.6864103
  14   0.0385128   2.7227619  -2.7600029
  14   0.0385131   2.7227620   2.6864104
  14  -4.1486298  -1.2764247  -1.3981829
  14  -4.1486295  -1.2764246   4.0482304
  14  -4.1486288   4.1699887  -1.3981828
  14  -4.1486285   4.1699888   4.0482304
  14   1.2977836  -1.2764237  -1.3981826
  14   1.2977839  -1.2764236   4.0482307
  14   1.2977846   4.1699897  -1.3981825
  14   1.2977849   4.1699898   4.0482307
  14  -2.7161705  -0.0031066  -2.7601244
  14  -2.7161702  -0.0031065   2.6862889
  14   2.7302429  -0.0031056  -2.7601241
  14   2.7302432  -0.0031055   2.6862892
  14  -1.2874303  -4.1377542  -1.4338278
  14  -1.2874300  -4.1377541   4.0125855
  14  -1.2874293   1.3086592  -1.4338277
  14  -1.2874290   1.3086593   4.0125856
  14   4.1589830  -4.1377532  -1.4338275
  14   4.1589833  -4.1377531   4.0125858
  14   4.1589840   1.3086602  -1.4338274
  14   4.1589844   1.3086603   4.0125859
  14  -2.7165219  -2.7238651  -0.2068400
  14  -2.7165209   2.7225483  -0.2068400
  14   2.7298915  -2.7238641  -0.2068397
  14   2.7298925   2.7225493  -0.2068396
  14  -1.4623391  -1.4872512  -4.0635709
  14  -1.4623388  -1.4872511   1.3828423
  14  -1.4623381   3.9591622  -4.0635709
  14  -1.4623378   3.9591622   1.3828424
  14   3.9840743  -1.4872502  -4.0635706
  14   3.9840746  -1.4872501   1.3828427
  14   3.9840753   3.9591632  -4.0635705
  14   3.9840756   3.9591632   1.3828427
ATOMS    4
  32  -0.0381940   0.0030807   0.2051395
  14  -3.9431047  -3.9744920  -4.1279784
  14  -3.9431044  -3.9744919   1.3184349
  14  -3.9431037   1.4719214  -4.1279783
  14  -3.9431034   1.4719215   1.3184350
  14   1.5033087  -3.9744910  -4.1279781
  14   1.5033090  -3.9744909   1.3184352
  14   1.5033097   1.4719224  -4.1279780
  14   1.5033100   1.4719225   1.3184353
  14   0.0486912  -2.7237691  -2.7697288
  14   0.0486915  -2.7237690   2.6766844
  14   0.0486922   2.7226443  -2.7697288
  14   0.0486925   2.7226443   2.6766845
  14  -4.1707086  -1.2487002  -1.4026410
  14  -4.1707083  -1.2487001   4.0437722
  14  -4.1707076   4.1977132  -1.4026410
  14  -4.1707073   4.1977133   4.0437723
  14   1.2757047  -1.2486992  -1.4026407
  14   1.2757050  -1.2486991   4.0437725
  14   1.2757057   4.1977142  -1.4026406
  14   1.2757060   4.1977143   4.0437726
  14  -2.7143108  -0.0039274  -2.7698824
  14  -2.7143105  -0.0039273   2.6765309
  14   2.7321026  -0.0039264  -2.7698820
  14   2.7321029  -0.0039263   2.6765312
  14  -1.2626146  -4.1569586  -1.4477072
  14  -1.2626143  -4.1569585   3.9987061
  14  -1.2626136   1.2894548  -1.4477071
  14  -1.2626133   1.2894549   3.9987061
  14   4.1837988  -4.1569576  -1.4477069
  14   4.1837991  -4.1569575   3.9987064
  14   4.1837998   1.2894558  -1.4477068
  14   4.1838001   1.2894559   3.9987064
  14  -2.7147549  -2.7240391  -0.2615103
  14  -2.7147539   2.7223743  -0.2615102
  14   2.7316585  -2.7240381  -0.2615100
  14   2.7316595   2.7223753  -0.2615099
  14  -1.4837537  -1.5152505  -4.0687631
  14  -1.4837534  -1.5152505   1.3776502
  14  -1.4837527   3.9311628  -4.0687630
  14  -1.4837524   3.9311629   1.3776502
  14   3.9626597  -1.5152495  -4.0687628
  14   3.9626600  -1.5152495   1.3776505
  14   3.9626607   3.9311638  -4.0687627
  14   3.9626610   3.9311639   1.3776505
ATOMS    5
  32  -0.0445094   0.0035901   0.2390599
  14  -3.9229334  -3.9595107  -4.1383765
  14  -3.9229331  -3.9595106   1.3080367
  14  -3.9229324   1.4869027  -4.1383765
  14  -3.9229321   1.4869028   1.3080368
  14   1.5234800  -3.9595097  -4.1383762
  14   1.5234803  -3.9595096   1.3080370
  14   1.5234810   1.4869037  -4.1383761
  14   1.5234813   1.4869038   1.3080371
  14   0.0567425  -2.7238621  -2.7774215
  14   0.0567428  -2.7238621   2.6689918
  14   0.0567435   2.7225513  -2.7774214
  14   0.0567438   2.7225513   2.6689919
  14  -4.1881717  -1.2267717  -1.4061672
  14  -4.1881714  -1.2267716   4.0402461
  14  -4.1881707   4.2196417  -1.4061671
  14  -4.1881704   4.2196418   4.0402462
  14   1.2582417  -1.2267707  -1.4061669
  14   1.2582420  -1.2267706   4.0402464
  14   1.2582427   4.2196427  -1.4061668
  14   1.2582430   4.2196428   4.0402465
  14  -2.7128398  -0.0045767  -2.7776004
  14  -2.7128395  -0.0045766   2.6688129
  14   2.7335736  -0.0045757  -2.7776000
  14   2.7335739  -0.0045756   2.6688132
  14  -1.2429867  -4.1721482  -1.4586850
  14  -1.2429864  -4.1721481   3.9877282
  14  -1.2429857   1.2742652  -1.4586850
  14  -1.2429854   1.2742652   3.9877283
  14   4.2034267  -4.1721472  -1.4586847
  14   4.2034270  -4.1721471   3.9877285
  14   4.2034277   1.2742662  -1.4586847
  14   4.2034280   1.2742662   3.9877286
  14  -2.7133573  -2.7241767  -0.3047514
  14  -2.7133563   2.7222367  -0.3047513
  14   2.7330560  -2.7241757  -0.3047510
  14   2.7330570   2.7222377  -0.3047510
  14  -1.5006914  -1.5373964  -4.0728698
  14  -1.5006911  -1.5373963   1.3735434
  14  -1.5006904   3.9090170  -4.0728698
  14  -1.5006901   3.9090170   1.3735435
  14   3.9457219  -1.5373954  -4.0728695
  14   3.9457222  -1.5373953   1.3735437
  14   3.9457229   3.9090180  -4.0728695
  14   3.9457232   3.9090180   1.3735438
ATOMS    6
  32  -0.0488795   0.0039425   0.2625321
  14  -3.9089752  -3.9491439  -4.1455718
  14  -3.9089749  -3.9491438   1.3008414
  14  -3.9089742   1.4972695  -4.1455718
  14  -3.9089739   1.4972695   1.3008415
  14   1.5374382  -3.9491429  -4.1455715
  14   1.5374385  -3.9491428   1.3008417
  14   1.5374392   1.4972705  -4.1455715
  14   1.5374395   1.4972705   1.3008418
  14   0.0623139  -2.7239265  -2.7827446
  14   0.0623142  -2.7239264   2.6636686
  14   0.0623149   2.7224869  -2.7827446
  14   0.0623152   2.7224870   2.6636687
  14  -4.2002559  -1.2115976  -1.4086072
  14  -4.2002556  -1.2115975   4.0378061
  14  -4.2002549   4.2348158  -1.4086071
  14  -4.2002546   4.2348159   4.0378062
  14   1.2461575  -1.2115966  -1.4086069
  14   1.2461578  -1.2115965   4.0378064
  14   1.2461585   4.2348168  -1.4086068
  14   1.2461588   4.2348169   4.0378065
  14  -2.7118219  -0.0050259  -2.7829411
  14  -2.7118216  -0.0050259   2.6634722
  14   2.7345914  -0.0050249  -2.7829408
  14   2.7345918  -0.0050249   2.6634725
  14  -1.2294046  -4.1826592  -1.4662815
  14  -1.2294043  -4.1826591   3.9801318
  14  -1.2294036   1.2637542  -1.4662814
  14  -1.2294033   1.2637543   3.9801318
  14   4.2170088  -4.1826582  -1.4662812
  14   4.2170091  -4.1826581   3.9801321
  14   4.2170098   1.2637552  -1.4662811
  14   4.2170101   1.2637553   3.9801322
  14  -2.7123902  -2.7242719  -0.3346734
  14  -2.7123892   2.7221415  -0.3346733
  14   2.7340232  -2.7242709  -0.3346731
  14   2.7340242   2.7221425  -0.3346730
  14  -1.5124121  -1.5527210  -4.0757116
  14  -1.5124118  -1.5527209   1.3707017
  14  -1.5124111   3.8936924  -4.0757115
  14  -1.5124107   3.8936925   1.3707017
  14   3.9340013  -1.5527200  -4.0757113
  14   3.9340016  -1.5527199   1.3707020
  14   3.9340023   3.8936934  -4.0757112
  14   3.9340026   3.8936935   1.3707020
ATOMS    7
  32  -0.0511134   0.0041227   0.2745304
  14  -3.9018402  -3.9438447  -4.1492499
  14  -3.9018399  -3.9438447   1.2971634
  14  -3.9018392   1.5025687  -4.1492498
  14  -3.9018389   1.5025687   1.2971635
  14   1.5445732  -3.9438437  -4.1492496
  14   1.5445735  -3.9438437   1.2971637
  14   1.5445742   1.5025697  -4.1492495
  14   1.5445745   1.5025697   1.2971638
  14   0.0651618  -2.7239594  -2.7854657
  14   0.0651621  -2.7239593   2.6609476
  14   0.0651628   2.7224540  -2.7854656
  14   0.0651631   2.7224540   2.6609477
  14  -4.2064329  -1.2038410  -1.4098544
  14  -4.2064326  -1.2038410   4.0365588
  14  -4.2064319   4.2425724  -1.4098544
  14  -4.2064316   4.2425724   4.0365589
  14   1.2399805  -1.2038400  -1.4098541
  14   1.2399808  -1.2038400   4.0365591
  14   1.2399815   4.2425734  -1.4098541
  14   1.2399818   4.2425734   4.0365592
  14  -2.7113016  -0.0052556  -2.7856711
  14  -2.7113013  -0.0052555   2.6607422
  14   2.7351118  -0.0052546  -2.7856708
  14   2.7351121  -0.0052545   2.6607425
  14  -1.2224618  -4.1880321  -1.4701646
  14  -1.2224615  -4.1880320   3.9762487
  14  -1.2224608   1.2583813  -1.4701645
  14  -1.2224605   1.2583814   3.9762488
  14   4.2239516  -4.1880310  -1.4701643
  14   4.2239519  -4.1880310   3.9762490
  14   4.2239526   1.2583823  -1.4701642
  14   4.2239529   1.2583824   3.9762491
  14  -2.7118959  -2.7243205  -0.3499686
  14  -2.7118949   2.7220929  -0.3499685
  14   2.7345175  -2.7243195  -0.3499683
  14   2.7345185   2.7220939  -0.3499682
  14  -1.5184033  -1.5605544  -4.0771642
  14  -1.5184030  -1.5605543   1.3692490
  14  -1.5184023   3.8858590  -4.0771642
  14  -1.5184020   3.8858591   1.3692491
  14   3.9280101  -1.5605534  -4.0771639
  14   3.9280104  -1.5605533   1.3692493
  14   3.9280111   3.8858600  -4.0771639
  14   3.9280114   3.8858601   1.3692494
ATOMS    8
  32  -0.0511134   0.0041227   0.2745304
  14  -3.9018402  -3.9438447  -4.1492499
  14  -3.9018399  -3.9438447   1.2971634
  14  -3.9018392   1.5025687  -4.1492498
  14  -3.9018389   1.5025687   1.2971635
  14   1.5445732  -3.9438437  -4.1492496
  14   1.5445735  -3.9438437   1.2971637
  14   1.5445742   1.5025697  -4.1492495
  14   1.5445745   1.5025697   1.2971638
  14   0.0651618  -2.7239594  -2.7854657
  14   0.0651621  -2.7239593   2.6609476
  14   0.0651628   2.7224540  -2.7854656
  14   0.0651631   2.7224540   2.6609477
  14  -4.2064329  -1.2038410  -1.4098544
  14  -4.2064326  -1.2038410   4.0365588
  14  -4.2064319   4.2425724  -1.4098544
  14  -4.2064316   4.2425724   4.0365589
  14   1.2399805  -1.2038400  -1.4098541
  14   1.2399808  -1.2038400   4.0365591
  14   1.2399815   4.2425734  -1.4098541
  14   1.2399818   4.2425734   4.0365592
  14  -2.7113016  -0.0052556  -2.7856711
  14  -2.7113013  -0.0052555   2.6607422
  14   2.7351118  -0.0052546  -2.7856708
  14   2.7351121  -0.0052545   2.6607425
  14  -1.2224618  -4.1880321  -1.4701646
  14  -1.2224615  -4.1880320   3.9762487
  14  -1.2224608   1.2583813  -1.4701645
  14  -1.2224605   1.2583814   3.9762488
  14   4.2239516  -4.1880310  -1.4701643
  14   4.2239519  -4.1880310   3.9762490
  14   4.2239526   1.2583823  -1.4701642
  14   4.2239529   1.2583824   3.9762491
  14  -2.7118959  -2.7243205  -0.3499686
  14  -2.7118949   2.7220929  -0.3499685
  14   2.7345175  -2.7243195  -0.3499683
  14   2.7345185   2.7220939  -0.3499682
  14  -1.5184033  -1.5605544  -4.0771642
  14  -1.5184030  -1.5605543   1.3692490
  14  -1.5184023   3.8858590  -4.0771642
  14  -1.5184020   3.8858591   1.3692491
  14   3.9280101  -1.5605534  -4.0771639
  14   3.9280104  -1.5605533   1.3692493
  14   3.9280111   3.8858600  -4.0771639
  14   3.9280114   3.8858601   1.3692494
ATOMS    9
  32  -0.0488795   0.0039425   0.2625321
  14  -3.9089752  -3.9491439  -4.1455718
  14  -3.9089749  -3.9491438   1.3008414
  14  -3.9089742   1.4972695  -4.1455718
  14  -3.9089739   1.4972695   1.3008415
  14   1.5374382  -3.9491429  -4.1455715
  14   1.5374385  -3.9491428   1.3008417
  14   1.5374392   1.4972705  -4.1455715
  14   1.5374395   1.4972705   1.3008418
  14   0.0623139  -2.7239265  -2.7827446
  14   0.0623142  -2.7239264   2.6636686
  14   0.0623149   2.7224869  -2.7827446
  14   0.0623152   2.7224870   2.6636687
  14  -4.2002559  -1.2115976  -1.4086072
  14  -4.2002556  -1.2115975   4.0378061
  14  -4.2002549   4.2348158  -1.4086071
  14  -4.2002546   4.2348159   4.0378062
  14   1.2461575  -1.2115966  -1.4086069
  14   1.2461578  -1.2115965   4.0378064
  14   1.2461585   4.2348168  -1.4086068
  14   1.2461588   4.2348169   4.0378065
  14  -2.7118219  -0.0050259  -2.7829411
  14  -2.7118216  -0.0050259   2.6634722
  14   2.7345914  -0.0050249  -2.7829408
  14   2.7345918  -0.0050249   2.6634725
  14  -1.2294046  -4.1826592  -1.4662815
  14  -1.2294043  -4.1826591   3.9801318
  14  -1.2294036   1.2637542  -1.4662814
  14  -1.2294033   1.2637543   3.9801318
  14   4.2170088  -4.1826582  -1.4662812
  14   4.2170091  -4.1826581   3.9801321
  14   4.2170098   1.2637552  -1.4662811
  14   4.2170101   1.2637553   3.9801322
  14  -2.7123902  -2.7242719  -0.3346734
  14  -2.7123892   2.7221415  -0.3346733
  14   2.7340232  -2.7242709  -0.3346731
  14   2.7340242   2.7221425  -0.3346730
  14  -1.5124121  -1.5527210  -4.0757116
  14  -1.5124118  -1.5527209   1.3707017
  14  -1.5124111   3.8936924  -4.0757115
  14  -1.5124107   3.8936925   1.3707017
  14   3.9340013  -1.5527200  -4.0757113
  14   3.9340016  -1.5527199   1.3707020
  14   3.9340023   3.8936934  -4.0757112
  14   3.9340026   3.8936935   1.3707020
ATOMS   10
  32  -0.0445094   0.0035901   0.2390599
  14  -3.9229334  -3.9595107  -4.1383765
  14  -3.9229331  -3.9595106   1.3080367
  14  -3.9229324   1.4869027  -4.1383765
  14  -3.9229321   1.4869028   1.3080368
  14   1.5234800  -3.9595097  -4.1383762
  14   1.5234803  -3.9595096   1.3080370
  14   1.5234810   1.4869037  -4.1383761
  14   1.5234813   1.4869038   1.3080371
  14   0.0567425  -2.7238621  -2.7774215
  14   0.0567428  -2.7238621   2.6689918
  14   0.0567435   2.7225513  -2.7774214
  14   0.0567438   2.7225513   2.6689919
  14  -4.1881717  -1.2267717  -1.4061672
  14  -4.1881714  -1.2267716   4.0402461
  14  -4.1881707   4.2196417  -1.4061671
  14  -4.1881704   4.2196418   4.0402462
  14   1.2582417  -1.2267707  -1.4061669
  14   1.2582420  -1.2267706   4.0402464
  14   1.2582427   4.2196427  -1.4061668
  14   1.2582430   4.2196428   4.0402465
  14  -2.7128398  -0.0045767  -2.7776004
  14  -2.7128395  -0.0045766   2.6688129
  14   2.7335736  -0.0045757  -2.7776000
  14   2.7335739  -0.0045756   2.6688132
  14  -1.2429867  -4.1721482  -1.4586850
  14  -1.2429864  -4.1721481   3.9877282
  14  -1.2429857   1.2742652  -1.4586850
  14  -1.2429854   1.2742652   3.9877283
  14   4.2034267  -4.1721472  -1.4586847
  14   4.2034270  -4.1721471   3.9877285
  14   4.2034277   1.2742662  -1.4586847
  14   4.2034280   1.2742662   3.9877286
  14  -2.7133573  -2.7241767  -0.3047514
  14  -2.7133563   2.7222367  -0.3047513
  14   2.7330560  -2.7241757  -0.3047510
  14   2.7330570   2.7222377  -0.3047510
  14  -1.5006914  -1.5373964  -4.0728698
  14  -1.5006911  -1.5373963   1.3735434
  14  -1.5006904   3.9090170  -4.0728698
  14  -1.5006901   3.9090170   1.3735435
  14   3.9457219  -1.5373954  -4.0728695
  14   3.9457222  -1.5373953   1.3735437
  14   3.9457229   3.9090180  -4.0728695
  14   3.9457232   3.9090180   1.3735438
ATOMS   11
  32  -0.0381940   0.0030807   0.2051395
  14  -3.9431047  -3.9744920  -4.1279784
  14  -3.9431044  -3.9744919   1.3184349
  14  -3.9431037   1.4719214  -4.1279783
  14  -3.9431034   1.4719215   1.3184350
  14   1.5033087  -3.9744910  -4.1279781
  14   1.5033090  -3.9744909   1.3184352
  14   1.5033097   1.4719224  -4.1279780
  14   1.5033100   1.4719225   1.3184353
  14   0.0486912  -2.7237691  -2.7697288
  14   0.0486915  -2.7237690   2.6766844
  14   0.0486922   2.7226443  -2.7697288
  14   0.0486925   2.7226443   2.6766845
  14  -4.1707086  -1.2487002  -1.4026410
  14  -4.1707083  -1.2487001   4.0437722
  14  -4.1707076   4.1977132  -1.4026410
  14  -4.1707073   4.1977133   4.0437723
  14   1.2757047  -1.2486992  -1.4026407
  14   1.2757050  -1.2486991   4.0437725
  14   1.2757057   4.1977142  -1.4026406
  14   1.2757060   4.1977143   4.0437726
  14  -2.7143108  -0.0039274  -2.7698824
  14  -2.7143105  -0.0039273   2.6765309
  14   2.7321026  -0.0039264  -2.7698820
  14   2.7321029  -0.0039263   2.6765312
  14  -1.2626146  -4.1569586  -1.4477072
  14  -1.2626143  -4.1569585   3.9987061
  14  -1.2626136   1.2894548  -1.4477071
  14  -1.2626133   1.2894549   3.9987061
  14   4.1837988  -4.1569576  -1.4477069
  14   4.1837991  -4.1569575   3.9987064
  14   4.1837998   1.2894558  -1.4477068
  14   4.1838001   1.2894559   3.9987064
  14  -2.7147549  -2.7240391  -0.2615103
  14  -2.7147539   2.7223743  -0.2615102
  14   2.7316585  -2.7240381  -0.2615100
  14   2.7316595   2.7223753  -0.2615099
  14  -1.4837537  -1.5152505  -4.0687631
  14  -1.4837534  -1.5152505   1.3776502
  14  -1.4837527   3.9311628  -4.0687630
  14  -1.4837524   3.9311629   1.3776502
  14   3.9626597  -1.5152495  -4.0687628
  14   3.9626600  -1.5152495   1.3776505
  14   3.9626607   3.9311638  -4.0687627
  14   3.9626610   3.9311639   1.3776505
ATOMS   12
  32  -0.0302095   0.0024368   0.1622536
  14  -3.9686076  -3.9934331  -4.1148319
  14  -3.9686072  -3.9934330   1.3315814
  14  -3.9686066   1.4529803  -4.1148318
  14  -3.9686062   1.4529804   1.3315815
  14   1.4778058  -3.9934321  -4.1148316
  14   1.4778061  -3.9934320   1.3315817
  14   1.4778068   1.4529813  -4.1148315
  14   1.4778071   1.4529814   1.3315818
  14   0.0385118  -2.7236515  -2.7600029
  14   0.0385121  -2.7236514   2.6864103
  14   0.0385128   2.7227619  -2.7600029
  14   0.0385131   2.7227620   2.6864104
  14  -4.1486298  -1.2764247  -1.3981829
  14  -4.1486295  -1.2764246   4.0482304
  14  -4.1486288   4.1699887  -1.3981828
  14  -4.1486285   4.1699888   4.0482304
  14   1.2977836  -1.2764237  -1.3981826
  14   1.2977839  -1.2764236   4.0482307
  14   1.2977846   4.1699897  -1.3981825
  14   1.2977849   4.1699898   4.0482307
  14  -2.7161705  -0.0031066  -2.7601244
  14  -2.7161702  -0.0031065   2.6862889
  14   2.7302429  -0.0031056  -2.7601241
  14   2.7302432  -0.0031055   2.6862892
  14  -1.2874303  -4.1377542  -1.4338278
  14  -1.2874300  -4.1377541   4.0125855
  14  -1.2874293   1.3086592  -1.4338277
  14  -1.2874290   1.3086593   4.0125856
  14   4.1589830  -4.1377532  -1.4338275
  14   4.1589833  -4.1377531   4.0125858
  14   4.1589840   1.3086602  -1.4338274
  14   4.1589844   1.3086603   4.0125859
  14  -2.7165219  -2.7238651  -0.2068400
  14  -2.7165209   2.7225483  -0.2068400
  14   2.7298915  -2.7238641  -0.2068397
  14   2.7298925   2.7225493  -0.2068396
  14  -1.4623391  -1.4872512  -4.0635709
  14  -1.4623388  -1.4872511   1.3828423
  14  -1.4623381   3.9591622  -4.0635709
  14  -1.4623378   3.9591622   1.3828424
  14   3.9840743  -1.4872502  -4.0635706
  14   3.9840746  -1.4872501   1.3828427
  14   3.9840753   3.9591632  -4.0635705
  14   3.9840756   3.9591632   1.3828427
ATOMS   13
  32  -0.0209046   0.0016863   0.1122763
  14  -3.9983274  -4.0155061  -4.0995115
  14  -3.9983271  -4.0155060   1.3469017
  14  -3.9983264   1.4309073  -4.0995115
  14  -3.9983261   1.4309074   1.3469018
  14   1.4480860  -4.0155051  -4.0995112
  14   1.4480863  -4.0155050   1.3469020
  14   1.4480870   1.4309083  -4.0995112
  14   1.4480873   1.4309084   1.3469021
  14   0.0266492  -2.7235145  -2.7486688
  14   0.0266495  -2.7235144   2.6977444
  14   0.0266502   2.7228989  -2.7486688
  14   0.0266505   2.7228990   2.6977445
  14  -4.1229002  -1.3087335  -1.3929876
  14  -4.1228999  -1.3087334   4.0534257
  14  -4.1228992   4.1376799  -1.3929875
  14  -4.1228989   4.1376800   4.0534257
  14   1.3235131  -1.3087325  -1.3929873
  14   1.3235135  -1.3087324   4.0534260
  14   1.3235141   4.1376809  -1.3929872
  14   1.3235145   4.1376810   4.0534260
  14  -2.7183378  -0.0021500  -2.7487529
  14  -2.7183375  -0.0021499   2.6976603
  14   2.7280756  -0.0021490  -2.7487526
  14   2.7280759  -0.0021489   2.6976607
  14  -1.3163494  -4.1153742  -1.4176534
  14  -1.3163491  -4.1153741   4.0287599
  14  -1.3163484   1.3310392  -1.4176533
  14  -1.3163481   1.3310392   4.0287600
  14   4.1300639  -4.1153732  -1.4176531
  14   4.1300642  -4.1153731   4.0287602
  14   4.1300649   1.3310402  -1.4176530
  14   4.1300653   1.3310402   4.0287603
  14  -2.7185811  -2.7236624  -0.1431299
  14  -2.7185801   2.7227510  -0.1431299
  14   2.7278323  -2.7236614  -0.1431296
  14   2.7278333   2.7227520  -0.1431295
  14  -1.4373835  -1.4546221  -4.0575202
  14  -1.4373832  -1.4546221   1.3888931
  14  -1.4373825   3.9917912  -4.0575201
  14  -1.4373822   3.9917913   1.3888931
  14   4.0090299  -1.4546211  -4.0575199
  14   4.0090302  -1.4546211   1.3888934
  14   4.0090309   3.9917922  -4.0575198
  14   4.0090312   3.9917923   1.3888935
ATOMS   14
  32  -0.0106862   0.0008622   0.0573921
  14  -4.0309652  -4.0397463  -4.0826870
  14  -4.0309649  -4.0397462   1.3637263
  14  -4.0309642   1.4066671  -4.0826869
  14  -4.0309639   1.4066672   1.3637263
  14   1.4154481  -4.0397453  -4.0826867
  14   1.4154485  -4.0397452   1.3637266
  14   1.4154491   1.4066681  -4.0826866
  14   1.4154495   1.4066682   1.3637267
  14   0.0136219  -2.7233639  -2.7362219
  14   0.0136222  -2.7233639   2.7101914
  14   0.0136229   2.7230494  -2.7362218
  14   0.0136232   2.7230495   2.7101914
  14  -4.0946444  -1.3442145  -1.3872822
  14  -4.0946441  -1.3442144   4.0591311
  14  -4.0946434   4.1021989  -1.3872821
  14  -4.0946431   4.1021990   4.0591311
  14   1.3517690  -1.3442135  -1.3872819
  14   1.3517693  -1.3442134   4.0591314
  14   1.3517700   4.1021999  -1.3872818
  14   1.3517703   4.1022000   4.0591314
  14  -2.7207178  -0.0010995  -2.7362649
  14  -2.7207175  -0.0010994   2.7101483
  14   2.7256955  -0.0010985  -2.7362646
  14   2.7256959  -0.0010984   2.7101486
  14  -1.3481080  -4.0907969  -1.3998909
  14  -1.3481077  -4.0907968   4.0465224
  14  -1.3481070   1.3556165  -1.3998908
  14  -1.3481067   1.3556166   4.0465225
  14   4.0983054  -4.0907959  -1.3998906
  14   4.0983057  -4.0907958   4.0465227
  14   4.0983064   1.3556175  -1.3998905
  14   4.0983067   1.3556176   4.0465228
  14  -2.7208424  -2.7234398  -0.0731644
  14  -2.7208414   2.7229736  -0.0731643
  14   2.7255709  -2.7234388  -0.0731641
  14   2.7255719   2.7229746  -0.0731640
  14  -1.4099777  -1.4187894  -4.0508754
  14  -1.4099774  -1.4187893   1.3955379
  14  -1.4099767   4.0276240  -4.0508753
  14  -1.4099764   4.0276241   1.3955380
  14   4.0364357  -1.4187884  -4.0508751
  14   4.0364360  -1.4187883   1.3955382
  14   4.0364367   4.0276250  -4.0508750
  14   4.0364370   4.0276251   1.3955383
ATOMS   15
  32  -0.0000007   0.0000004  -0.0000005
  14  -4.0650947  -4.0650944  -4.0650935
  14  -4.0650944  -4.0650943   1.3813197
  14  -4.0650937   1.3813190  -4.0650935
  14  -4.0650934   1.3813191   1.3813198
  14   1.3813187  -4.0650934  -4.0650932
  14   1.3813190  -4.0650933   1.3813200
  14   1.3813197   1.3813200  -4.0650932
  14   1.3813200   1.3813201   1.3813201
  14  -0.0000008  -2.7232066  -2.7232061
  14  -0.0000004  -2.7232065   2.7232072
  14   0.0000002   2.7232068  -2.7232060
  14   0.0000006   2.7232069   2.7232072
  14  -4.0650971  -1.3813171  -1.3813161
  14  -4.0650968  -1.3813170   4.0650972
  14  -4.0650961   4.0650963  -1.3813160
  14  -4.0650958   4.0650964   4.0650973
  14   1.3813162  -1.3813161  -1.3813157
  14   1.3813165  -1.3813160   4.0650975
  14   1.3813172   4.0650973  -1.3813157
  14   1.3813175   4.0650974   4.0650976
  14  -2.7232067  -0.0000010  -2.7232062
  14  -2.7232064  -0.0000009   2.7232070
  14   2.7232067   0.0000000  -2.7232059
  14   2.7232070   0.0000001   2.7232073
  14  -1.3813179  -4.0650963  -1.3813166
  14  -1.3813176  -4.0650962   4.0650967
  14  -1.3813169   1.3813171  -1.3813165
  14  -1.3813166   1.3813171   4.0650968
  14   4.0650954  -4.0650953  -1.3813163
  14   4.0650957  -4.0650952   4.0650970
  14   4.0650964   1.3813181  -1.3813162
  14   4.0650968   1.3813181   4.0650971
  14  -2.7232071  -2.7232070  -0.0000013
  14  -2.7232061   2.7232064  -0.0000013
  14   2.7232063  -2.7232060  -0.0000010
  14   2.7232073   2.7232074  -0.0000010
  14  -1.3813193  -1.3813190  -4.0439269
  14  -1.3813190  -1.3813189   1.4024864
  14  -1.3813183   4.0650944  -4.0439268
  14  -1.3813180   4.0650945   1.4024865
  14   4.0650940  -1.3813180  -4.0439266
  14   4.0650944  -1.3813179   1.4024867
  14   4.0650951   4.0650954  -4.0439265
  14   4.0650954   4.0650955   1.4024868
ATOMS   16
  32   0.0106847  -0.0008614  -0.0573931
  14  -4.0992242  -4.0904425  -4.0475001
  14  -4.0992239  -4.0904424   1.3989132
  14  -4.0992232   1.3559709  -4.0475000
  14  -4.0992229   1.3559710   1.3989133
  14   1.3471892  -4.0904415  -4.0474998
  14   1.3471895  -4.0904414   1.3989135
  14   1.3471902   1.3559719  -4.0474997
  14   1.3471905   1.3559720   1.3989136
  14  -0.0136234  -2.7230492  -2.7101903
  14  -0.0136231  -2.7230491   2.7362230
  14  -0.0136224   2.7233642  -2.7101902
  14  -0.0136221   2.7233643   2.7362230
  14  -4.0355499  -1.4184197  -1.3753499
  14  -4.0355496  -1.4184196   4.0710634
  14  -4.0355489   4.0279937  -1.3753498
  14  -4.0355486   4.0279937   4.0710634
  14   1.4108634  -1.4184187  -1.3753496
  14   1.4108638  -1.4184186   4.0710637
  14   1.4108644   4.0279947  -1.3753495
  14   1.4108648   4.0279947   4.0710637
  14  -2.7256955   0.0010976  -2.7101475
  14  -2.7256952   0.0010976   2.7362657
  14   2.7207179   0.0010986  -2.7101472
  14   2.7207182   0.0010986   2.7362660
  14  -1.4145279  -4.0393958  -1.3627423
  14  -1.4145276  -4.0393957   4.0836710
  14  -1.4145269   1.4070176  -1.3627422
  14  -1.4145266   1.4070177   4.0836710
  14   4.0318855  -4.0393948  -1.3627420
  14   4.0318858  -4.0393947   4.0836713
  14   4.0318865   1.4070186  -1.3627419
  14   4.0318868   1.4070187   4.0836714
  14  -2.7255718  -2.7229742   0.0731617
  14  -2.7255708   2.7234392   0.0731618
  14   2.7208416  -2.7229732   0.0731621
  14   2.7208426   2.7234402   0.0731621
  14  -1.3526610  -1.3438485  -4.0369784
  14  -1.3526607  -1.3438485   1.4094349
  14  -1.3526600   4.1025648  -4.0369783
  14  -1.3526597   4.1025649   1.4094350
  14   4.0937524  -1.3438475  -4.0369781
  14   4.0937527  -1.3438475   1.4094352
  14   4.0937534   4.1025658  -4.0369780
  14   4.0937537   4.1025659   1.4094353
ATOMS   17
  32   0.0209032  -0.0016855  -0.1122774
  14  -4.1318621  -4.1146827  -4.0306755
  14  -4.1318618  -4.1146827   1.4157378
  14  -4.1318611   1.3317307  -4.0306754
  14  -4.1318608   1.3317307   1.4157378