# --- AXSF block for ---- iev =    23  freq =     511.252340 cm-1
ANIMSTEPS   30
ATOMS    1
  32   0.0036575   0.0063020  -0.0022487
  14  -4.0838244  -4.1075605  -4.0307694
  14  -4.0838241  -4.1075604   1.4156439
  14  -4.0838234   1.3388529  -4.0307693
  14  -4.0838231   1.3388530   1.4156439
  14   1.3625889  -4.1075595  -4.0307691
  14   1.3625892  -4.1075594   1.4156442
  14   1.3625899   1.3388539  -4.0307690
  14   1.3625902   1.3388540   1.4156442
  14   0.0377377  -2.6737476  -2.7408360
  14   0.0377380  -2.6737476   2.7055773
  14   0.0377387   2.7726658  -2.7408359
  14   0.0377390   2.7726658   2.7055773
  14  -4.0986826  -1.4371780  -1.3604195
  14  -4.0986823  -1.4371779   4.0859937
  14  -4.0986816   4.0092354  -1.3604195
  14  -4.0986813   4.0092355   4.0859938
  14   1.3477308  -1.4371769  -1.3604192
  14   1.3477311  -1.4371769   4.0859940
  14   1.3477318   4.0092364  -1.3604192
  14   1.3477321   4.0092365   4.0859941
  14  -2.6944965   0.0649867  -2.7408361
  14  -2.6944962   0.0649868   2.7055771
  14   2.7519168   0.0649877  -2.7408358
  14   2.7519172   0.0649878   2.7055774
  14  -1.4231274  -4.1127496  -1.3701001
  14  -1.4231271  -4.1127495   4.0763132
  14  -1.4231264   1.3336638  -1.3701000
  14  -1.4231261   1.3336639   4.0763132
  14   4.0232860  -4.1127486  -1.3700998
  14   4.0232863  -4.1127485   4.0763135
  14   4.0232870   1.3336648  -1.3700997
  14   4.0232873   1.3336649   4.0763136
  14  -2.6944806  -2.6737481  -0.0231796
  14  -2.6944796   2.7726653  -0.0231795
  14   2.7519328  -2.6737471  -0.0231793
  14   2.7519338   2.7726663  -0.0231792
  14  -1.3918217  -1.4155282  -4.0461085
  14  -1.3918214  -1.4155281   1.4003048
  14  -1.3918207   4.0308852  -4.0461084
  14  -1.3918204   4.0308853   1.4003049
  14   4.0545916  -1.4155272  -4.0461081
  14   4.0545919  -1.4155271   1.4003051
  14   4.0545926   4.0308862  -4.0461081
  14   4.0545929   4.0308863   1.4003052
ATOMS    2
  32   0.0071558   0.0123281  -0.0043987
  14  -4.1017356  -4.1481705  -3.9979454
  14  -4.1017353  -4.1481705   1.4484679
  14  -4.1017346   1.2982429  -3.9979453
  14  -4.1017343   1.2982429   1.4484679
  14   1.3446778  -4.1481695  -3.9979451
  14   1.3446781  -4.1481695   1.4484682
  14   1.3446788   1.2982439  -3.9979450
  14   1.3446791   1.2982439   1.4484682
  14   0.0738269  -2.6264503  -2.7576954
  14   0.0738272  -2.6264502   2.6887179
  14   0.0738279   2.8199631  -2.7576953
  14   0.0738282   2.8199632   2.6887179
  14  -4.1308002  -1.4905974  -1.3404363
  14  -4.1307999  -1.4905973   4.1059770
  14  -4.1307992   3.9558160  -1.3404362
  14  -4.1307989   3.9558161   4.1059770
  14   1.3156132  -1.4905964  -1.3404360
  14   1.3156135  -1.4905963   4.1059773
  14   1.3156142   3.9558170  -1.3404359
  14   1.3156145   3.9558171   4.1059773
  14  -2.6670412   0.1271341  -2.7576955
  14  -2.6670409   0.1271342   2.6887177
  14   2.7793722   0.1271351  -2.7576952
  14   2.7793725   0.1271352   2.6887181
  14  -1.4631096  -4.1583202  -1.3593738
  14  -1.4631093  -4.1583201   4.0870394
  14  -1.4631086   1.2880932  -1.3593737
  14  -1.4631083   1.2880933   4.0870395
  14   3.9833038  -4.1583191  -1.3593735
  14   3.9833041  -4.1583191   4.0870398
  14   3.9833048   1.2880942  -1.3593734
  14   3.9833051   1.2880943   4.0870398
  14  -2.6670095  -2.6264508  -0.0453448
  14  -2.6670085   2.8199626  -0.0453447
  14   2.7794039  -2.6264498  -0.0453445
  14   2.7794049   2.8199636  -0.0453444
  14  -1.4018652  -1.4482423  -4.0481947
  14  -1.4018649  -1.4482422   1.3982186
  14  -1.4018642   3.9981711  -4.0481946
  14  -1.4018639   3.9981712   1.3982187
  14   4.0445482  -1.4482413  -4.0481944
  14   4.0445485  -1.4482412   1.3982189
  14   4.0445492   3.9981721  -4.0481943
  14   4.0445495   3.9981722   1.3982190
ATOMS    3
  32   0.0103414   0.0178155  -0.0063565
  14  -4.1180453  -4.1851498  -3.9680561
  14  -4.1180450  -4.1851497   1.4783572
  14  -4.1180443   1.2612636  -3.9680560
  14  -4.1180440   1.2612637   1.4783572
  14   1.3283680  -4.1851488  -3.9680558
  14   1.3283684  -4.1851487   1.4783575
  14   1.3283690   1.2612646  -3.9680557
  14   1.3283694   1.2612647   1.4783576
  14   0.1066894  -2.5833817  -2.7730474
  14   0.1066897  -2.5833816   2.6733658
  14   0.1066904   2.8630317  -2.7730474
  14   0.1066907   2.8630318   2.6733659
  14  -4.1600463  -1.5392408  -1.3222397
  14  -4.1600459  -1.5392407   4.1241736
  14  -4.1600452   3.9071726  -1.3222396
  14  -4.1600449   3.9071727   4.1241736
  14   1.2863671  -1.5392398  -1.3222394
  14   1.2863674  -1.5392397   4.1241739
  14   1.2863681   3.9071736  -1.3222393
  14   1.2863684   3.9071737   4.1241739
  14  -2.6420405   0.1837251  -2.7730476
  14  -2.6420402   0.1837252   2.6733657
  14   2.8043729   0.1837261  -2.7730473
  14   2.8043732   0.1837262   2.6733660
  14  -1.4995170  -4.1998164  -1.3496066
  14  -1.4995167  -4.1998163   4.0968067
  14  -1.4995160   1.2465970  -1.3496065
  14  -1.4995157   1.2465971   4.0968068
  14   3.9468963  -4.1998154  -1.3496062
  14   3.9468966  -4.1998153   4.0968070
  14   3.9468973   1.2465980  -1.3496062
  14   3.9468976   1.2465981   4.0968071
  14  -2.6419945  -2.5833821  -0.0655283
  14  -2.6419935   2.8630312  -0.0655282
  14   2.8044188  -2.5833811  -0.0655280
  14   2.8044198   2.8630322  -0.0655279
  14  -1.4110106  -1.4780315  -4.0500944
  14  -1.4110103  -1.4780315   1.3963189
  14  -1.4110096   3.9683818  -4.0500943
  14  -1.4110093   3.9683819   1.3963189
  14   4.0354027  -1.4780305  -4.0500941
  14   4.0354030  -1.4780305   1.3963192
  14   4.0354037   3.9683828  -4.0500940
  14   4.0354040   3.9683829   1.3963193
ATOMS    4
  32   0.0130750   0.0225243  -0.0080364
  14  -4.1320409  -4.2168821  -3.9424078
  14  -4.1320406  -4.2168820   1.5040055
  14  -4.1320399   1.2295313  -3.9424077
  14  -4.1320396   1.2295314   1.5040055
  14   1.3143725  -4.2168811  -3.9424075
  14   1.3143728  -4.2168810   1.5040058
  14   1.3143735   1.2295323  -3.9424074
  14   1.3143738   1.2295324   1.5040059
  14   0.1348890  -2.5464241  -2.7862212
  14   0.1348893  -2.5464240   2.6601921
  14   0.1348900   2.8999893  -2.7862211
  14   0.1348903   2.8999894   2.6601922
  14  -4.1851426  -1.5809821  -1.3066250
  14  -4.1851423  -1.5809821   4.1397882
  14  -4.1851416   3.8654313  -1.3066250
  14  -4.1851413   3.8654313   4.1397883
  14   1.2612708  -1.5809811  -1.3066247
  14   1.2612711  -1.5809811   4.1397885
  14   1.2612718   3.8654323  -1.3066246
  14   1.2612721   3.8654323   4.1397886
  14  -2.6205872   0.2322864  -2.7862213
  14  -2.6205869   0.2322865   2.6601920
  14   2.8258262   0.2322874  -2.7862210
  14   2.8258265   0.2322875   2.6601923
  14  -1.5307587  -4.2354247  -1.3412252
  14  -1.5307584  -4.2354247   4.1051881
  14  -1.5307577   1.2109887  -1.3412251
  14  -1.5307574   1.2109887   4.1051882
  14   3.9156547  -4.2354237  -1.3412249
  14   3.9156550  -4.2354237   4.1051884
  14   3.9156557   1.2109897  -1.3412248
  14   3.9156560   1.2109897   4.1051885
  14  -2.6205290  -2.5464245  -0.0828479
  14  -2.6205280   2.8999888  -0.0828479
  14   2.8258844  -2.5464235  -0.0828476
  14   2.8258854   2.8999898  -0.0828476
  14  -1.4188585  -1.5035940  -4.0517246
  14  -1.4188582  -1.5035939   1.3946887
  14  -1.4188575   3.9428194  -4.0517245
  14  -1.4188571   3.9428195   1.3946888
  14   4.0275549  -1.5035930  -4.0517242
  14   4.0275552  -1.5035929   1.3946890
  14   4.0275559   3.9428204  -4.0517242
  14   4.0275562   3.9428205   1.3946891
ATOMS    5
  32   0.0152371   0.0262487  -0.0093652
  14  -4.1431106  -4.2419805  -3.9221214
  14  -4.1431103  -4.2419804   1.5242918
  14  -4.1431096   1.2044329  -3.9221214
  14  -4.1431093   1.2044330   1.5242919
  14   1.3033028  -4.2419795  -3.9221211
  14   1.3033031  -4.2419794   1.5242921
  14   1.3033038   1.2044339  -3.9221211
  14   1.3033041   1.2044340   1.5242922
  14   0.1571933  -2.5171927  -2.7966408
  14   0.1571936  -2.5171927   2.6497724
  14   0.1571943   2.9292207  -2.7966408
  14   0.1571946   2.9292207   2.6497725
  14  -4.2049924  -1.6139972  -1.2942747
  14  -4.2049920  -1.6139971   4.1521386
  14  -4.2049913   3.8324162  -1.2942746
  14  -4.2049910   3.8324163   4.1521386
  14   1.2414210  -1.6139962  -1.2942744
  14   1.2414213  -1.6139961   4.1521389
  14   1.2414220   3.8324172  -1.2942743
  14   1.2414223   3.8324173   4.1521389
  14  -2.6036188   0.2706956  -2.7966410
  14  -2.6036185   0.2706957   2.6497723
  14   2.8427945   0.2706966  -2.7966407
  14   2.8427949   0.2706967   2.6497726
  14  -1.5554690  -4.2635889  -1.3345960
  14  -1.5554687  -4.2635888   4.1118173
  14  -1.5554680   1.1828245  -1.3345959
  14  -1.5554677   1.1828246   4.1118174
  14   3.8909444  -4.2635879  -1.3345957
  14   3.8909447  -4.2635878   4.1118176
  14   3.8909454   1.1828255  -1.3345956
  14   3.8909457   1.1828256   4.1118177
  14  -2.6035509  -2.5171932  -0.0965468
  14  -2.6035499   2.9292202  -0.0965467
  14   2.8428625  -2.5171922  -0.0965465
  14   2.8428635   2.9292212  -0.0965464
  14  -1.4250656  -1.5238124  -4.0530139
  14  -1.4250653  -1.5238123   1.3933994
  14  -1.4250646   3.9226010  -4.0530138
  14  -1.4250643   3.9226010   1.3933994
  14   4.0213477  -1.5238114  -4.0530136
  14   4.0213480  -1.5238113   1.3933997
  14   4.0213487   3.9226020  -4.0530135
  14   4.0213490   3.9226020   1.3933997
ATOMS    6
  32   0.0167332   0.0288259  -0.0102847
  14  -4.1507706  -4.2593481  -3.9080837
  14  -4.1507703  -4.2593480   1.5383296
  14  -4.1507696   1.1870653  -3.9080836
  14  -4.1507693   1.1870654   1.5383297
  14   1.2956428  -4.2593471  -3.9080834
  14   1.2956431  -4.2593470   1.5383299
  14   1.2956438   1.1870663  -3.9080833
  14   1.2956441   1.1870664   1.5383300
  14   0.1726275  -2.4969652  -2.8038511
  14   0.1726278  -2.4969651   2.6425622
  14   0.1726285   2.9494482  -2.8038510
  14   0.1726288   2.9494483   2.6425623
  14  -4.2187280  -1.6368430  -1.2857285
  14  -4.2187277  -1.6368429   4.1606848
  14  -4.2187270   3.8095704  -1.2857284
  14  -4.2187267   3.8095705   4.1606848
  14   1.2276853  -1.6368420  -1.2857282
  14   1.2276857  -1.6368419   4.1606851
  14   1.2276863   3.8095714  -1.2857281
  14   1.2276867   3.8095715   4.1606851
  14  -2.5918770   0.2972741  -2.8038512
  14  -2.5918767   0.2972741   2.6425621
  14   2.8545363   0.2972751  -2.8038509
  14   2.8545366   0.2972751   2.6425624
  14  -1.5725681  -4.2830780  -1.3300087
  14  -1.5725678  -4.2830779   4.1164046
  14  -1.5725671   1.1633354  -1.3300086
  14  -1.5725668   1.1633355   4.1164047
  14   3.8738453  -4.2830770  -1.3300084
  14   3.8738456  -4.2830769   4.1164049
  14   3.8738463   1.1633364  -1.3300083
  14   3.8738466   1.1633365   4.1164050
  14  -2.5918024  -2.4969656  -0.1060262
  14  -2.5918014   2.9494478  -0.1060261
  14   2.8546110  -2.4969646  -0.1060259
  14   2.8546120   2.9494488  -0.1060258
  14  -1.4293609  -1.5378032  -4.0539061
  14  -1.4293606  -1.5378031   1.3925071
  14  -1.4293599   3.9086102  -4.0539061
  14  -1.4293596   3.9086103   1.3925072
  14   4.0170525  -1.5378022  -4.0539058
  14   4.0170528  -1.5378021   1.3925075
  14   4.0170535   3.9086112  -4.0539057
  14   4.0170538   3.9086113   1.3925075
ATOMS    7
  32   0.0174980   0.0301433  -0.0107547
  14  -4.1546862  -4.2682259  -3.9009080
  14  -4.1546859  -4.2682259   1.5455053
  14  -4.1546852   1.1781875  -3.9009079
  14  -4.1546849   1.1781875   1.5455054
  14   1.2917272  -4.2682249  -3.9009077
  14   1.2917275  -4.2682249   1.5455056
  14   1.2917282   1.1781885  -3.9009076
  14   1.2917285   1.1781885   1.5455057
  14   0.1805170  -2.4866254  -2.8075367
  14   0.1805173  -2.4866254   2.6388766
  14   0.1805180   2.9597879  -2.8075366
  14   0.1805183   2.9597880   2.6388766
  14  -4.2257493  -1.6485211  -1.2813600
  14  -4.2257490  -1.6485210   4.1650533
  14  -4.2257483   3.7978923  -1.2813599
  14  -4.2257480   3.7978924   4.1650534
  14   1.2206641  -1.6485201  -1.2813596
  14   1.2206644  -1.6485200   4.1650536
  14   1.2206651   3.7978933  -1.2813596
  14   1.2206654   3.7978934   4.1650537
  14  -2.5858750   0.3108602  -2.8075368
  14  -2.5858747   0.3108603   2.6388764
  14   2.8605384   0.3108612  -2.8075365
  14   2.8605387   0.3108613   2.6388767
  14  -1.5813087  -4.2930402  -1.3276638
  14  -1.5813084  -4.2930401   4.1187495
  14  -1.5813077   1.1533732  -1.3276637
  14  -1.5813074   1.1533732   4.1187496
  14   3.8651047  -4.2930392  -1.3276635
  14   3.8651050  -4.2930391   4.1187498
  14   3.8651057   1.1533742  -1.3276634
  14   3.8651060   1.1533742   4.1187499
  14  -2.5857969  -2.4866259  -0.1108717
  14  -2.5857959   2.9597875  -0.1108717
  14   2.8606165  -2.4866249  -0.1108714
  14   2.8606175   2.9597885  -0.1108714
  14  -1.4315565  -1.5449549  -4.0543622
  14  -1.4315562  -1.5449548   1.3920511
  14  -1.4315555   3.9014585  -4.0543621
  14  -1.4315552   3.9014586   1.3920511
  14   4.0148569  -1.5449539  -4.0543619
  14   4.0148572  -1.5449538   1.3920514
  14   4.0148579   3.9014595  -4.0543618
  14   4.0148582   3.9014596   1.3920514
ATOMS    8
  32   0.0174980   0.0301433  -0.0107547
  14  -4.1546862  -4.2682259  -3.9009080
  14  -4.1546859  -4.2682259   1.5455053
  14  -4.1546852   1.1781875  -3.9009079
  14  -4.1546849   1.1781875   1.5455054
  14   1.2917272  -4.2682249  -3.9009077
  14   1.2917275  -4.2682249   1.5455056
  14   1.2917282   1.1781885  -3.9009076
  14   1.2917285   1.1781885   1.5455057
  14   0.1805170  -2.4866254  -2.8075367
  14   0.1805173  -2.4866254   2.6388766
  14   0.1805180   2.9597879  -2.8075366
  14   0.1805183   2.9597880   2.6388766
  14  -4.2257493  -1.6485211  -1.2813600
  14  -4.2257490  -1.6485210   4.1650533
  14  -4.2257483   3.7978923  -1.2813599
  14  -4.2257480   3.7978924   4.1650534
  14   1.2206641  -1.6485201  -1.2813596
  14   1.2206644  -1.6485200   4.1650536
  14   1.2206651   3.7978933  -1.2813596
  14   1.2206654   3.7978934   4.1650537
  14  -2.5858750   0.3108602  -2.8075368
  14  -2.5858747   0.3108603   2.6388764
  14   2.8605384   0.3108612  -2.8075365
  14   2.8605387   0.3108613   2.6388767
  14  -1.5813087  -4.2930402  -1.3276638
  14  -1.5813084  -4.2930401   4.1187495
  14  -1.5813077   1.1533732  -1.3276637
  14  -1.5813074   1.1533732   4.1187496
  14   3.8651047  -4.2930392  -1.3276635
  14   3.8651050  -4.2930391   4.1187498
  14   3.8651057   1.1533742  -1.3276634
  14   3.8651060   1.1533742   4.1187499
  14  -2.5857969  -2.4866259  -0.1108717
  14  -2.5857959   2.9597875  -0.1108717
  14   2.8606165  -2.4866249  -0.1108714
  14   2.8606175   2.9597885  -0.1108714
  14  -1.4315565  -1.5449549  -4.0543622
  14  -1.4315562  -1.5449548   1.3920511
  14  -1.4315555   3.9014585  -4.0543621
  14  -1.4315552   3.9014586   1.3920511
  14   4.0148569  -1.5449539  -4.0543619
  14   4.0148572  -1.5449538   1.3920514
  14   4.0148579   3.9014595  -4.0543618
  14   4.0148582   3.9014596   1.3920514
ATOMS    9
  32   0.0167332   0.0288259  -0.0102847
  14  -4.1507706  -4.2593481  -3.9080837
  14  -4.1507703  -4.2593480   1.5383296
  14  -4.1507696   1.1870653  -3.9080836
  14  -4.1507693   1.1870654   1.5383297
  14   1.2956428  -4.2593471  -3.9080834
  14   1.2956431  -4.2593470   1.5383299
  14   1.2956438   1.1870663  -3.9080833
  14   1.2956441   1.1870664   1.5383300
  14   0.1726275  -2.4969652  -2.8038511
  14   0.1726278  -2.4969651   2.6425622
  14   0.1726285   2.9494482  -2.8038510
  14   0.1726288   2.9494483   2.6425623
  14  -4.2187280  -1.6368430  -1.2857285
  14  -4.2187277  -1.6368429   4.1606848
  14  -4.2187270   3.8095704  -1.2857284
  14  -4.2187267   3.8095705   4.1606848
  14   1.2276853  -1.6368420  -1.2857282
  14   1.2276857  -1.6368419   4.1606851
  14   1.2276863   3.8095714  -1.2857281
  14   1.2276867   3.8095715   4.1606851
  14  -2.5918770   0.2972741  -2.8038512
  14  -2.5918767   0.2972741   2.6425621
  14   2.8545363   0.2972751  -2.8038509
  14   2.8545366   0.2972751   2.6425624
  14  -1.5725681  -4.2830780  -1.3300087
  14  -1.5725678  -4.2830779   4.1164046
  14  -1.5725671   1.1633354  -1.3300086
  14  -1.5725668   1.1633355   4.1164047
  14   3.8738453  -4.2830770  -1.3300084
  14   3.8738456  -4.2830769   4.1164049
  14   3.8738463   1.1633364  -1.3300083
  14   3.8738466   1.1633365   4.1164050
  14  -2.5918024  -2.4969656  -0.1060262
  14  -2.5918014   2.9494478  -0.1060261
  14   2.8546110  -2.4969646  -0.1060259
  14   2.8546120   2.9494488  -0.1060258
  14  -1.4293609  -1.5378032  -4.0539061
  14  -1.4293606  -1.5378031   1.3925071
  14  -1.4293599   3.9086102  -4.0539061
  14  -1.4293596   3.9086103   1.3925072
  14   4.0170525  -1.5378022  -4.0539058
  14   4.0170528  -1.5378021   1.3925075
  14   4.0170535   3.9086112  -4.0539057
  14   4.0170538   3.9086113   1.3925075
ATOMS   10
  32   0.0152371   0.0262487  -0.0093652
  14  -4.1431106  -4.2419805  -3.9221214
  14  -4.1431103  -4.2419804   1.5242918
  14  -4.1431096   1.2044329  -3.9221214
  14  -4.1431093   1.2044330   1.5242919
  14   1.3033028  -4.2419795  -3.9221211
  14   1.3033031  -4.2419794   1.5242921
  14   1.3033038   1.2044339  -3.9221211
  14   1.3033041   1.2044340   1.5242922
  14   0.1571933  -2.5171927  -2.7966408
  14   0.1571936  -2.5171927   2.6497724
  14   0.1571943   2.9292207  -2.7966408
  14   0.1571946   2.9292207   2.6497725
  14  -4.2049924  -1.6139972  -1.2942747
  14  -4.2049920  -1.6139971   4.1521386
  14  -4.2049913   3.8324162  -1.2942746
  14  -4.2049910   3.8324163   4.1521386
  14   1.2414210  -1.6139962  -1.2942744
  14   1.2414213  -1.6139961   4.1521389
  14   1.2414220   3.8324172  -1.2942743
  14   1.2414223   3.8324173   4.1521389
  14  -2.6036188   0.2706956  -2.7966410
  14  -2.6036185   0.2706957   2.6497723
  14   2.8427945   0.2706966  -2.7966407
  14   2.8427949   0.2706967   2.6497726
  14  -1.5554690  -4.2635889  -1.3345960
  14  -1.5554687  -4.2635888   4.1118173
  14  -1.5554680   1.1828245  -1.3345959
  14  -1.5554677   1.1828246   4.1118174
  14   3.8909444  -4.2635879  -1.3345957
  14   3.8909447  -4.2635878   4.1118176
  14   3.8909454   1.1828255  -1.3345956
  14   3.8909457   1.1828256   4.1118177
  14  -2.6035509  -2.5171932  -0.0965468
  14  -2.6035499   2.9292202  -0.0965467
  14   2.8428625  -2.5171922  -0.0965465
  14   2.8428635   2.9292212  -0.0965464
  14  -1.4250656  -1.5238124  -4.0530139
  14  -1.4250653  -1.5238123   1.3933994
  14  -1.4250646   3.9226010  -4.0530138
  14  -1.4250643   3.9226010   1.3933994
  14   4.0213477  -1.5238114  -4.0530136
  14   4.0213480  -1.5238113   1.3933997
  14   4.0213487   3.9226020  -4.0530135
  14   4.0213490   3.9226020   1.3933997
ATOMS   11
  32   0.0130750   0.0225243  -0.0080364
  14  -4.1320409  -4.2168821  -3.9424078
  14  -4.1320406  -4.2168820   1.5040055
  14  -4.1320399   1.2295313  -3.9424077
  14  -4.1320396   1.2295314   1.5040055
  14   1.3143725  -4.2168811  -3.9424075
  14   1.3143728  -4.2168810   1.5040058
  14   1.3143735   1.2295323  -3.9424074
  14   1.3143738   1.2295324   1.5040059
  14   0.1348890  -2.5464241  -2.7862212
  14   0.1348893  -2.5464240   2.6601921
  14   0.1348900   2.8999893  -2.7862211
  14   0.1348903   2.8999894   2.6601922
  14  -4.1851426  -1.5809821  -1.3066250
  14  -4.1851423  -1.5809821   4.1397882
  14  -4.1851416   3.8654313  -1.3066250
  14  -4.1851413   3.8654313   4.1397883
  14   1.2612708  -1.5809811  -1.3066247
  14   1.2612711  -1.5809811   4.1397885
  14   1.2612718   3.8654323  -1.3066246
  14   1.2612721   3.8654323   4.1397886
  14  -2.6205872   0.2322864  -2.7862213
  14  -2.6205869   0.2322865   2.6601920
  14   2.8258262   0.2322874  -2.7862210
  14   2.8258265   0.2322875   2.6601923
  14  -1.5307587  -4.2354247  -1.3412252
  14  -1.5307584  -4.2354247   4.1051881
  14  -1.5307577   1.2109887  -1.3412251
  14  -1.5307574   1.2109887   4.1051882
  14   3.9156547  -4.2354237  -1.3412249
  14   3.9156550  -4.2354237   4.1051884
  14   3.9156557   1.2109897  -1.3412248
  14   3.9156560   1.2109897   4.1051885
  14  -2.6205290  -2.5464245  -0.0828479
  14  -2.6205280   2.8999888  -0.0828479
  14   2.8258844  -2.5464235  -0.0828476
  14   2.8258854   2.8999898  -0.0828476
  14  -1.4188585  -1.5035940  -4.0517246
  14  -1.4188582  -1.5035939   1.3946887
  14  -1.4188575   3.9428194  -4.0517245
  14  -1.4188571   3.9428195   1.3946888
  14   4.0275549  -1.5035930  -4.0517242
  14   4.0275552  -1.5035929   1.3946890
  14   4.0275559   3.9428204  -4.0517242
  14   4.0275562   3.9428205   1.3946891
ATOMS   12
  32   0.0103414   0.0178155  -0.0063565
  14  -4.1180453  -4.1851498  -3.9680561
  14  -4.1180450  -4.1851497   1.4783572
  14  -4.1180443   1.2612636  -3.9680560
  14  -4.1180440   1.2612637   1.4783572
  14   1.3283680  -4.1851488  -3.9680558
  14   1.3283684  -4.1851487   1.4783575
  14   1.3283690   1.2612646  -3.9680557
  14   1.3283694   1.2612647   1.4783576
  14   0.1066894  -2.5833817  -2.7730474
  14   0.1066897  -2.5833816   2.6733658
  14   0.1066904   2.8630317  -2.7730474
  14   0.1066907   2.8630318   2.6733659
  14  -4.1600463  -1.5392408  -1.3222397
  14  -4.1600459  -1.5392407   4.1241736
  14  -4.1600452   3.9071726  -1.3222396
  14  -4.1600449   3.9071727   4.1241736
  14   1.2863671  -1.5392398  -1.3222394
  14   1.2863674  -1.5392397   4.1241739
  14   1.2863681   3.9071736  -1.3222393
  14   1.2863684   3.9071737   4.1241739
  14  -2.6420405   0.1837251  -2.7730476
  14  -2.6420402   0.1837252   2.6733657
  14   2.8043729   0.1837261  -2.7730473
  14   2.8043732   0.1837262   2.6733660
  14  -1.4995170  -4.1998164  -1.3496066
  14  -1.4995167  -4.1998163   4.0968067
  14  -1.4995160   1.2465970  -1.3496065
  14  -1.4995157   1.2465971   4.0968068
  14   3.9468963  -4.1998154  -1.3496062
  14   3.9468966  -4.1998153   4.0968070
  14   3.9468973   1.2465980  -1.3496062
  14   3.9468976   1.2465981   4.0968071
  14  -2.6419945  -2.5833821  -0.0655283
  14  -2.6419935   2.8630312  -0.0655282
  14   2.8044188  -2.5833811  -0.0655280
  14   2.8044198   2.8630322  -0.0655279
  14  -1.4110106  -1.4780315  -4.0500944
  14  -1.4110103  -1.4780315   1.3963189
  14  -1.4110096   3.9683818  -4.0500943
  14  -1.4110093   3.9683819   1.3963189
  14   4.0354027  -1.4780305  -4.0500941
  14   4.0354030  -1.4780305   1.3963192
  14   4.0354037   3.9683828  -4.0500940
  14   4.0354040   3.9683829   1.3963193
ATOMS   13
  32   0.0071558   0.0123281  -0.0043987
  14  -4.1017356  -4.1481705  -3.9979454
  14  -4.1017353  -4.1481705   1.4484679
  14  -4.1017346   1.2982429  -3.9979453
  14  -4.1017343   1.2982429   1.4484679
  14   1.3446778  -4.1481695  -3.9979451
  14   1.3446781  -4.1481695   1.4484682
  14   1.3446788   1.2982439  -3.9979450
  14   1.3446791   1.2982439   1.4484682
  14   0.0738269  -2.6264503  -2.7576954
  14   0.0738272  -2.6264502   2.6887179
  14   0.0738279   2.8199631  -2.7576953
  14   0.0738282   2.8199632   2.6887179
  14  -4.1308002  -1.4905974  -1.3404363
  14  -4.1307999  -1.4905973   4.1059770
  14  -4.1307992   3.9558160  -1.3404362
  14  -4.1307989   3.9558161   4.1059770
  14   1.3156132  -1.4905964  -1.3404360
  14   1.3156135  -1.4905963   4.1059773
  14   1.3156142   3.9558170  -1.3404359
  14   1.3156145   3.9558171   4.1059773
  14  -2.6670412   0.1271341  -2.7576955
  14  -2.6670409   0.1271342   2.6887177
  14   2.7793722   0.1271351  -2.7576952
  14   2.7793725   0.1271352   2.6887181
  14  -1.4631096  -4.1583202  -1.3593738
  14  -1.4631093  -4.1583201   4.0870394
  14  -1.4631086   1.2880932  -1.3593737
  14  -1.4631083   1.2880933   4.0870395
  14   3.9833038  -4.1583191  -1.3593735
  14   3.9833041  -4.1583191   4.0870398
  14   3.9833048   1.2880942  -1.3593734
  14   3.9833051   1.2880943   4.0870398
  14  -2.6670095  -2.6264508  -0.0453448
  14  -2.6670085   2.8199626  -0.0453447
  14   2.7794039  -2.6264498  -0.0453445
  14   2.7794049   2.8199636  -0.0453444
  14  -1.4018652  -1.4482423  -4.0481947
  14  -1.4018649  -1.4482422   1.3982186
  14  -1.4018642   3.9981711  -4.0481946
  14  -1.4018639   3.9981712   1.3982187
  14   4.0445482  -1.4482413  -4.0481944
  14   4.0445485  -1.4482412   1.3982189
  14   4.0445492   3.9981721  -4.0481943
  14   4.0445495   3.9981722   1.3982190
ATOMS   14
  32   0.0036575   0.0063020  -0.0022487
  14  -4.0838244  -4.1075605  -4.0307694
  14  -4.0838241  -4.1075604   1.4156439
  14  -4.0838234   1.3388529  -4.0307693
  14  -4.0838231   1.3388530   1.4156439
  14   1.3625889  -4.1075595  -4.0307691
  14   1.3625892  -4.1075594   1.4156442
  14   1.3625899   1.3388539  -4.0307690
  14   1.3625902   1.3388540   1.4156442
  14   0.0377377  -2.6737476  -2.7408360
  14   0.0377380  -2.6737476   2.7055773
  14   0.0377387   2.7726658  -2.7408359
  14   0.0377390   2.7726658   2.7055773
  14  -4.0986826  -1.4371780  -1.3604195
  14  -4.0986823  -1.4371779   4.0859937
  14  -4.0986816   4.0092354  -1.3604195
  14  -4.0986813   4.0092355   4.0859938
  14   1.3477308  -1.4371769  -1.3604192
  14   1.3477311  -1.4371769   4.0859940
  14   1.3477318   4.0092364  -1.3604192
  14   1.3477321   4.0092365   4.0859941
  14  -2.6944965   0.0649867  -2.7408361
  14  -2.6944962   0.0649868   2.7055771
  14   2.7519168   0.0649877  -2.7408358
  14   2.7519172   0.0649878   2.7055774
  14  -1.4231274  -4.1127496  -1.3701001
  14  -1.4231271  -4.1127495   4.0763132
  14  -1.4231264   1.3336638  -1.3701000
  14  -1.4231261   1.3336639   4.0763132
  14   4.0232860  -4.1127486  -1.3700998
  14   4.0232863  -4.1127485   4.0763135
  14   4.0232870   1.3336648  -1.3700997
  14   4.0232873   1.3336649   4.0763136
  14  -2.6944806  -2.6737481  -0.0231796
  14  -2.6944796   2.7726653  -0.0231795
  14   2.7519328  -2.6737471  -0.0231793
  14   2.7519338   2.7726663  -0.0231792
  14  -1.3918217  -1.4155282  -4.0461085
  14  -1.3918214  -1.4155281   1.4003048
  14  -1.3918207   4.0308852  -4.0461084
  14  -1.3918204   4.0308853   1.4003049
  14   4.0545916  -1.4155272  -4.0461081
  14   4.0545919  -1.4155271   1.4003051
  14   4.0545926   4.0308862  -4.0461081
  14   4.0545929   4.0308863   1.4003052
ATOMS   15
  32  -0.0000007   0.0000004  -0.0000005
  14  -4.0650947  -4.0650944  -4.0650935
  14  -4.0650944  -4.0650943   1.3813197
  14  -4.0650937   1.3813190  -4.0650935
  14  -4.0650934   1.3813191   1.3813198
  14   1.3813187  -4.0650934  -4.0650932
  14   1.3813190  -4.0650933   1.3813200
  14   1.3813197   1.3813200  -4.0650932
  14   1.3813200   1.3813201   1.3813201
  14  -0.0000008  -2.7232066  -2.7232061
  14  -0.0000004  -2.7232065   2.7232072
  14   0.0000002   2.7232068  -2.7232060
  14   0.0000006   2.7232069   2.7232072
  14  -4.0650971  -1.3813171  -1.3813161
  14  -4.0650968  -1.3813170   4.0650972
  14  -4.0650961   4.0650963  -1.3813160
  14  -4.0650958   4.0650964   4.0650973
  14   1.3813162  -1.3813161  -1.3813157
  14   1.3813165  -1.3813160   4.0650975
  14   1.3813172   4.0650973  -1.3813157
  14   1.3813175   4.0650974   4.0650976
  14  -2.7232067  -0.0000009  -2.7232062
  14  -2.7232064  -0.0000009   2.7232070
  14   2.7232067   0.0000001  -2.7232059
  14   2.7232070   0.0000001   2.7232073
  14  -1.3813179  -4.0650963  -1.3813166
  14  -1.3813176  -4.0650962   4.0650967
  14  -1.3813169   1.3813171  -1.3813165
  14  -1.3813166   1.3813171   4.0650968
  14   4.0650954  -4.0650953  -1.3813163
  14   4.0650957  -4.0650952   4.0650970
  14   4.0650964   1.3813181  -1.3813162
  14   4.0650968   1.3813181   4.0650971
  14  -2.7232071  -2.7232070  -0.0000013
  14  -2.7232061   2.7232064  -0.0000013
  14   2.7232063  -2.7232060  -0.0000010
  14   2.7232073   2.7232074  -0.0000010
  14  -1.3813193  -1.3813190  -4.0439269
  14  -1.3813190  -1.3813189   1.4024864
  14  -1.3813183   4.0650944  -4.0439268
  14  -1.3813180   4.0650945   1.4024865
  14   4.0650940  -1.3813180  -4.0439266
  14   4.0650944  -1.3813179   1.4024867
  14   4.0650951   4.0650954  -4.0439265
  14   4.0650954   4.0650955   1.4024868
ATOMS   16
  32  -0.0036589  -0.0063012   0.0022477
  14  -4.0463650  -4.0226283  -4.0994177
  14  -4.0463647  -4.0226283   1.3469956
  14  -4.0463640   1.4237850  -4.0994176
  14  -4.0463637   1.4237851   1.3469957
  14   1.4000484  -4.0226273  -4.0994173
  14   1.4000487  -4.0226273   1.3469959
  14   1.4000494   1.4237861  -4.0994173
  14   1.4000497   1.4237861   1.3469960
  14  -0.0377392  -2.7726655  -2.7055762
  14  -0.0377389  -2.7726654   2.7408371
  14  -0.0377382   2.6737479  -2.7055761
  14  -0.0377379   2.6737480   2.7408371
  14  -4.0315117  -1.3254563  -1.4022126
  14  -4.0315114  -1.3254562   4.0442007
  14  -4.0315107   4.1209571  -1.4022125
  14  -4.0315104   4.1209572   4.0442008
  14   1.4149017  -1.3254553  -1.4022123
  14   1.4149020  -1.3254552   4.0442010
  14   1.4149027   4.1209581  -1.4022122
  14   1.4149030   4.1209582   4.0442011
  14  -2.7519168  -0.0649886  -2.7055763
  14  -2.7519165  -0.0649885   2.7408369
  14   2.6944966  -0.0649876  -2.7055760
  14   2.6944969  -0.0649875   2.7408372
  14  -1.3395085  -4.0174431  -1.3925331
  14  -1.3395082  -4.0174430   4.0538802
  14  -1.3395075   1.4289703  -1.3925330
  14  -1.3395072   1.4289704   4.0538803
  14   4.1069049  -4.0174421  -1.3925328
  14   4.1069052  -4.0174420   4.0538805
  14   4.1069059   1.4289713  -1.3925327
  14   4.1069062   1.4289714   4.0538806
  14  -2.7519337  -2.7726659   0.0231769
  14  -2.7519327   2.6737475   0.0231770
  14   2.6944797  -2.7726649   0.0231772
  14   2.6944807   2.6737485   0.0231773
  14  -1.3708169  -1.3471097  -4.0417453
  14  -1.3708166  -1.3471097   1.4046680
  14  -1.3708159   4.0993037  -4.0417452
  14  -1.3708156   4.0993037   1.4046680
  14   4.0755965  -1.3471087  -4.0417450
  14   4.0755968  -1.3471087   1.4046683
  14   4.0755975   4.0993047  -4.0417449
  14   4.0755978   4.0993047   1.4046683
ATOMS   17
  32  -0.0071573  -0.0123273   0.0043977
  14  -4.0284539  -3.9820183  -4.1322417
  14  -4.0284536  -3.9820182   1.3141716
  14  -4.0284529   1.4643951  -4.1322416
  14  -4.0284526   1.4643952   1.3141717