# --- AXSF block for ---- iev =    10  freq =     341.516089 cm-1
ANIMSTEPS   30
ATOMS    1
  32   0.0109731  -0.0015238  -0.0711997
  14  -4.0334085  -4.0348605  -4.0429806
  14  -4.0334081  -4.0348604   1.4034326
  14  -4.0334075   1.4115529  -4.0429806
  14  -4.0334071   1.4115530   1.4034327
  14   1.4130049  -4.0348595  -4.0429803
  14   1.4130052  -4.0348594   1.4034329
  14   1.4130059   1.4115539  -4.0429803
  14   1.4130062   1.4115540   1.4034330
  14   0.0104338  -2.7216634  -2.6508739
  14   0.0104341  -2.7216633   2.7955394
  14   0.0104348   2.7247500  -2.6508738
  14   0.0104351   2.7247501   2.7955395
  14  -4.1050067  -1.3403029  -1.3483615
  14  -4.1050064  -1.3403029   4.0980518
  14  -4.1050057   4.1061105  -1.3483614
  14  -4.1050054   4.1061105   4.0980518
  14   1.3414067  -1.3403019  -1.3483612
  14   1.3414070  -1.3403019   4.0980521
  14   1.3414077   4.1061115  -1.3483611
  14   1.3414080   4.1061115   4.0980521
  14  -2.7343613  -0.0014511  -2.6508740
  14  -2.7343610  -0.0014510   2.7955393
  14   2.7120521  -0.0014501  -2.6508737
  14   2.7120524  -0.0014500   2.7955396
  14  -1.3511659  -4.0941642  -1.3606765
  14  -1.3511656  -4.0941642   4.0857367
  14  -1.3511649   1.3522492  -1.3606765
  14  -1.3511646   1.3522492   4.0857368
  14   4.0952475  -4.0941632  -1.3606762
  14   4.0952478  -4.0941632   4.0857370
  14   4.0952485   1.3522502  -1.3606761
  14   4.0952488   1.3522502   4.0857371
  14  -2.7343413  -2.7216511  -0.0677719
  14  -2.7343403   2.7247623  -0.0677718
  14   2.7120721  -2.7216501  -0.0677716
  14   2.7120731   2.7247633  -0.0677715
  14  -1.4197561  -1.4212081  -4.0125065
  14  -1.4197558  -1.4212080   1.4339067
  14  -1.4197551   4.0252053  -4.0125065
  14  -1.4197547   4.0252054   1.4339068
  14   4.0266573  -1.4212071  -4.0125062
  14   4.0266576  -1.4212070   1.4339070
  14   4.0266583   4.0252063  -4.0125062
  14   4.0266586   4.0252064   1.4339071
ATOMS    2
  32   0.0214672  -0.0029815  -0.1392872
  14  -4.0031070  -4.0059480  -4.0218342
  14  -4.0031067  -4.0059479   1.4245791
  14  -4.0031060   1.4404654  -4.0218341
  14  -4.0031057   1.4404655   1.4245791
  14   1.4433064  -4.0059470  -4.0218339
  14   1.4433067  -4.0059469   1.4245794
  14   1.4433074   1.4404664  -4.0218338
  14   1.4433077   1.4404665   1.4245795
  14   0.0204124  -2.7201876  -2.5817029
  14   0.0204127  -2.7201875   2.8647104
  14   0.0204134   2.7262258  -2.5817028
  14   0.0204137   2.7262259   2.8647105
  14  -4.1431720  -1.3010813  -1.3168473
  14  -4.1431717  -1.3010812   4.1295660
  14  -4.1431710   4.1453321  -1.3168472
  14  -4.1431707   4.1453322   4.1295661
  14   1.3032413  -1.3010803  -1.3168469
  14   1.3032417  -1.3010802   4.1295663
  14   1.3032423   4.1453331  -1.3168469
  14   1.3032427   4.1453332   4.1295664
  14  -2.7450284  -0.0028378  -2.5817030
  14  -2.7450281  -0.0028377   2.8647103
  14   2.7013850  -0.0028368  -2.5817027
  14   2.7013853  -0.0028367   2.8647106
  14  -1.3223316  -4.1219617  -1.3409385
  14  -1.3223313  -4.1219617   4.1054747
  14  -1.3223306   1.3244517  -1.3409385
  14  -1.3223303   1.3244517   4.1054748
  14   4.1240818  -4.1219607  -1.3409382
  14   4.1240821  -4.1219607   4.1054750
  14   4.1240828   1.3244527  -1.3409382
  14   4.1240831   1.3244527   4.1054751
  14  -2.7449889  -2.7201632  -0.1325806
  14  -2.7449879   2.7262502  -0.1325805
  14   2.7014245  -2.7201622  -0.1325803
  14   2.7014255   2.7262512  -0.1325802
  14  -1.4565129  -1.4593538  -3.9824594
  14  -1.4565126  -1.4593538   1.4639539
  14  -1.4565119   3.9870596  -3.9824593
  14  -1.4565116   3.9870596   1.4639539
  14   3.9899004  -1.4593528  -3.9824591
  14   3.9899008  -1.4593528   1.4639542
  14   3.9899014   3.9870606  -3.9824590
  14   3.9899018   3.9870606   1.4639542
ATOMS    3
  32   0.0310232  -0.0043088  -0.2012871
  14  -3.9755148  -3.9796204  -4.0025784
  14  -3.9755145  -3.9796203   1.4438349
  14  -3.9755138   1.4667930  -4.0025783
  14  -3.9755135   1.4667930   1.4438349
  14   1.4708986  -3.9796194  -4.0025781
  14   1.4708989  -3.9796193   1.4438352
  14   1.4708996   1.4667940  -4.0025780
  14   1.4708999   1.4667940   1.4438353
  14   0.0294988  -2.7188438  -2.5187163
  14   0.0294991  -2.7188437   2.9276970
  14   0.0294998   2.7275696  -2.5187162
  14   0.0295001   2.7275697   2.9276971
  14  -4.1779251  -1.2653663  -1.2881506
  14  -4.1779248  -1.2653662   4.1582627
  14  -4.1779241   4.1810471  -1.2881505
  14  -4.1779238   4.1810472   4.1582628
  14   1.2684883  -1.2653653  -1.2881503
  14   1.2684886  -1.2653652   4.1582630
  14   1.2684893   4.1810481  -1.2881502
  14   1.2684896   4.1810482   4.1582631
  14  -2.7547418  -0.0041006  -2.5187164
  14  -2.7547415  -0.0041005   2.9276969
  14   2.6916716  -0.0040996  -2.5187161
  14   2.6916719  -0.0040995   2.9276972
  14  -1.2960753  -4.1472740  -1.3229653
  14  -1.2960750  -4.1472739   4.1234480
  14  -1.2960743   1.2991394  -1.3229652
  14  -1.2960740   1.2991395   4.1234481
  14   4.1503381  -4.1472729  -1.3229650
  14   4.1503384  -4.1472729   4.1234483
  14   4.1503391   1.2991404  -1.3229649
  14   4.1503394   1.2991405   4.1234484
  14  -2.7546845  -2.7188084  -0.1915949
  14  -2.7546835   2.7276050  -0.1915948
  14   2.6917289  -2.7188074  -0.1915946
  14   2.6917299   2.7276060  -0.1915945
  14  -1.4899835  -1.4940891  -3.9550987
  14  -1.4899832  -1.4940890   1.4913146
  14  -1.4899825   3.9523243  -3.9550986
  14  -1.4899822   3.9523244   1.4913146
  14   3.9564299  -1.4940881  -3.9550984
  14   3.9564302  -1.4940880   1.4913149
  14   3.9564309   3.9523253  -3.9550983
  14   3.9564312   3.9523254   1.4913149
ATOMS    4
  32   0.0392232  -0.0054477  -0.2544899
  14  -3.9518376  -3.9570285  -3.9860548
  14  -3.9518373  -3.9570284   1.4603585
  14  -3.9518366   1.4893849  -3.9860547
  14  -3.9518363   1.4893850   1.4603585
  14   1.4945758  -3.9570275  -3.9860545
  14   1.4945761  -3.9570274   1.4603588
  14   1.4945768   1.4893859  -3.9860544
  14   1.4945771   1.4893860   1.4603589
  14   0.0372959  -2.7176907  -2.4646668
  14   0.0372962  -2.7176906   2.9817464
  14   0.0372969   2.7287227  -2.4646668
  14   0.0372972   2.7287228   2.9817465
  14  -4.2077471  -1.2347189  -1.2635257
  14  -4.2077468  -1.2347188   4.1828876
  14  -4.2077461   4.2116945  -1.2635256
  14  -4.2077458   4.2116946   4.1828877
  14   1.2386663  -1.2347179  -1.2635254
  14   1.2386666  -1.2347178   4.1828879
  14   1.2386673   4.2116955  -1.2635253
  14   1.2386676   4.2116956   4.1828880
  14  -2.7630770  -0.0051842  -2.4646670
  14  -2.7630767  -0.0051841   2.9817463
  14   2.6833364  -0.0051832  -2.4646667
  14   2.6833367  -0.0051831   2.9817466
  14  -1.2735445  -4.1689946  -1.3075422
  14  -1.2735442  -4.1689945   4.1388710
  14  -1.2735435   1.2774188  -1.3075422
  14  -1.2735432   1.2774189   4.1388711
  14   4.1728689  -4.1689936  -1.3075419
  14   4.1728692  -4.1689935   4.1388713
  14   4.1728699   1.2774198  -1.3075418
  14   4.1728702   1.2774199   4.1388714
  14  -2.7630043  -2.7176458  -0.2422357
  14  -2.7630033   2.7287676  -0.2422356
  14   2.6834090  -2.7176448  -0.2422354
  14   2.6834100   2.7287686  -0.2422353
  14  -1.5187049  -1.5238958  -3.9316202
  14  -1.5187046  -1.5238957   1.5147930
  14  -1.5187039   3.9225176  -3.9316202
  14  -1.5187036   3.9225177   1.5147931
  14   3.9277085  -1.5238948  -3.9316199
  14   3.9277088  -1.5238947   1.5147934
  14   3.9277095   3.9225186  -3.9316198
  14   3.9277098   3.9225187   1.5147934
ATOMS    5
  32   0.0457090  -0.0063486  -0.2965702
  14  -3.9331103  -3.9391596  -3.9729856
  14  -3.9331099  -3.9391595   1.4734277
  14  -3.9331093   1.5072538  -3.9729855
  14  -3.9331089   1.5072539   1.4734278
  14   1.5133031  -3.9391586  -3.9729853
  14   1.5133034  -3.9391585   1.4734280
  14   1.5133041   1.5072548  -3.9729852
  14   1.5133044   1.5072549   1.4734281
  14   0.0434629  -2.7167786  -2.4219168
  14   0.0434633  -2.7167785   3.0244964
  14   0.0434639   2.7296348  -2.4219168
  14   0.0434643   2.7296349   3.0244965
  14  -4.2313345  -1.2104786  -1.2440488
  14  -4.2313342  -1.2104785   4.2023645
  14  -4.2313335   4.2359348  -1.2440487
  14  -4.2313332   4.2359349   4.2023646
  14   1.2150788  -1.2104776  -1.2440485
  14   1.2150792  -1.2104775   4.2023648
  14   1.2150798   4.2359358  -1.2440484
  14   1.2150802   4.2359359   4.2023649
  14  -2.7696696  -0.0060412  -2.4219170
  14  -2.7696693  -0.0060411   3.0244963
  14   2.6767437  -0.0060402  -2.4219166
  14   2.6767441  -0.0060401   3.0244966
  14  -1.2557239  -4.1861744  -1.2953435
  14  -1.2557236  -4.1861743   4.1510698
  14  -1.2557229   1.2602390  -1.2953434
  14  -1.2557226   1.2602391   4.1510699
  14   4.1906894  -4.1861734  -1.2953432
  14   4.1906897  -4.1861733   4.1510701
  14   4.1906904   1.2602400  -1.2953431
  14   4.1906908   1.2602401   4.1510702
  14  -2.7695849  -2.7167262  -0.2822896
  14  -2.7695839   2.7296872  -0.2822896
  14   2.6768285  -2.7167252  -0.2822893
  14   2.6768295   2.7296882  -0.2822892
  14  -1.5414219  -1.5474711  -3.9130501
  14  -1.5414216  -1.5474711   1.5333632
  14  -1.5414209   3.8989422  -3.9130500
  14  -1.5414205   3.8989423   1.5333633
  14   3.9049915  -1.5474701  -3.9130498
  14   3.9049918  -1.5474701   1.5333635
  14   3.9049925   3.8989432  -3.9130497
  14   3.9049928   3.8989433   1.5333636
ATOMS    6
  32   0.0501970  -0.0069720  -0.3256891
  14  -3.9201513  -3.9267946  -3.9639419
  14  -3.9201510  -3.9267945   1.4824714
  14  -3.9201503   1.5196188  -3.9639418
  14  -3.9201500   1.5196189   1.4824714
  14   1.5262621  -3.9267936  -3.9639416
  14   1.5262624  -3.9267935   1.4824717
  14   1.5262631   1.5196198  -3.9639415
  14   1.5262634   1.5196199   1.4824717
  14   0.0477305  -2.7161475  -2.3923346
  14   0.0477308  -2.7161474   3.0540787
  14   0.0477315   2.7302659  -2.3923345
  14   0.0477318   2.7302660   3.0540788
  14  -4.2476566  -1.1937047  -1.2305711
  14  -4.2476563  -1.1937047   4.2158421
  14  -4.2476556   4.2527087  -1.2305711
  14  -4.2476553   4.2527087   4.2158422
  14   1.1987567  -1.1937037  -1.2305708
  14   1.1987571  -1.1937037   4.2158424
  14   1.1987577   4.2527097  -1.2305708
  14   1.1987581   4.2527097   4.2158425
  14  -2.7742316  -0.0066343  -2.3923347
  14  -2.7742313  -0.0066342   3.0540786
  14   2.6721818  -0.0066333  -2.3923344
  14   2.6721821  -0.0066332   3.0540789
  14  -1.2433924  -4.1980625  -1.2869022
  14  -1.2433921  -4.1980624   4.1595111
  14  -1.2433914   1.2483509  -1.2869021
  14  -1.2433911   1.2483510   4.1595112
  14   4.2030210  -4.1980615  -1.2869019
  14   4.2030213  -4.1980614   4.1595114
  14   4.2030220   1.2483519  -1.2869018
  14   4.2030223   1.2483520   4.1595115
  14  -2.7741385  -2.7160899  -0.3100062
  14  -2.7741375   2.7303235  -0.3100062
  14   2.6722749  -2.7160889  -0.3100059
  14   2.6722759   2.7303245  -0.3100059
  14  -1.5571416  -1.5637849  -3.9001999
  14  -1.5571413  -1.5637848   1.5462134
  14  -1.5571406   3.8826285  -3.9001998
  14  -1.5571403   3.8826286   1.5462135
  14   3.8892718  -1.5637839  -3.9001996
  14   3.8892721  -1.5637838   1.5462137
  14   3.8892728   3.8826295  -3.9001995
  14   3.8892731   3.8826296   1.5462138
ATOMS    7
  32   0.0524911  -0.0072906  -0.3405738
  14  -3.9135271  -3.9204740  -3.9593191
  14  -3.9135268  -3.9204739   1.4870942
  14  -3.9135261   1.5259394  -3.9593190
  14  -3.9135258   1.5259395   1.4870943
  14   1.5328863  -3.9204730  -3.9593188
  14   1.5328866  -3.9204729   1.4870945
  14   1.5328873   1.5259404  -3.9593187
  14   1.5328876   1.5259405   1.4870946
  14   0.0499119  -2.7158248  -2.3772130
  14   0.0499122  -2.7158248   3.0692002
  14   0.0499129   2.7305885  -2.3772130
  14   0.0499132   2.7305886   3.0692003
  14  -4.2560000  -1.1851304  -1.2236818
  14  -4.2559997  -1.1851304   4.2227315
  14  -4.2559990   4.2612830  -1.2236817
  14  -4.2559987   4.2612830   4.2227316
  14   1.1904134  -1.1851294  -1.2236815
  14   1.1904137  -1.1851294   4.2227318
  14   1.1904144   4.2612840  -1.2236814
  14   1.1904147   4.2612840   4.2227319
  14  -2.7765636  -0.0069374  -2.3772132
  14  -2.7765633  -0.0069374   3.0692001
  14   2.6698498  -0.0069364  -2.3772129
  14   2.6698501  -0.0069364   3.0692004
  14  -1.2370889  -4.2041394  -1.2825872
  14  -1.2370886  -4.2041393   4.1638260
  14  -1.2370879   1.2422740  -1.2825872
  14  -1.2370876   1.2422741   4.1638261
  14   4.2093245  -4.2041384  -1.2825869
  14   4.2093248  -4.2041383   4.1638263
  14   4.2093255   1.2422750  -1.2825868
  14   4.2093258   1.2422751   4.1638264
  14  -2.7764662  -2.7157646  -0.3241742
  14  -2.7764652   2.7306488  -0.3241741
  14   2.6699472  -2.7157636  -0.3241738
  14   2.6699482   2.7306498  -0.3241738
  14  -1.5651771  -1.5721240  -3.8936312
  14  -1.5651768  -1.5721239   1.5527820
  14  -1.5651761   3.8742894  -3.8936312
  14  -1.5651758   3.8742895   1.5527821
  14   3.8812363  -1.5721230  -3.8936309
  14   3.8812366  -1.5721229   1.5527823
  14   3.8812373   3.8742904  -3.8936309
  14   3.8812376   3.8742905   1.5527824
ATOMS    8
  32   0.0524911  -0.0072906  -0.3405738
  14  -3.9135271  -3.9204740  -3.9593191
  14  -3.9135268  -3.9204739   1.4870942
  14  -3.9135261   1.5259394  -3.9593190
  14  -3.9135258   1.5259395   1.4870943
  14   1.5328863  -3.9204730  -3.9593188
  14   1.5328866  -3.9204729   1.4870945
  14   1.5328873   1.5259404  -3.9593187
  14   1.5328876   1.5259405   1.4870946
  14   0.0499119  -2.7158248  -2.3772130
  14   0.0499122  -2.7158248   3.0692002
  14   0.0499129   2.7305885  -2.3772130
  14   0.0499132   2.7305886   3.0692003
  14  -4.2560000  -1.1851304  -1.2236818
  14  -4.2559997  -1.1851304   4.2227315
  14  -4.2559990   4.2612830  -1.2236817
  14  -4.2559987   4.2612830   4.2227316
  14   1.1904134  -1.1851294  -1.2236815
  14   1.1904137  -1.1851294   4.2227318
  14   1.1904144   4.2612840  -1.2236814
  14   1.1904147   4.2612840   4.2227319
  14  -2.7765636  -0.0069374  -2.3772132
  14  -2.7765633  -0.0069374   3.0692001
  14   2.6698498  -0.0069364  -2.3772129
  14   2.6698501  -0.0069364   3.0692004
  14  -1.2370889  -4.2041394  -1.2825872
  14  -1.2370886  -4.2041393   4.1638260
  14  -1.2370879   1.2422740  -1.2825872
  14  -1.2370876   1.2422741   4.1638261
  14   4.2093245  -4.2041384  -1.2825869
  14   4.2093248  -4.2041383   4.1638263
  14   4.2093255   1.2422750  -1.2825868
  14   4.2093258   1.2422751   4.1638264
  14  -2.7764662  -2.7157646  -0.3241742
  14  -2.7764652   2.7306488  -0.3241741
  14   2.6699472  -2.7157636  -0.3241738
  14   2.6699482   2.7306498  -0.3241738
  14  -1.5651771  -1.5721240  -3.8936312
  14  -1.5651768  -1.5721239   1.5527820
  14  -1.5651761   3.8742894  -3.8936312
  14  -1.5651758   3.8742895   1.5527821
  14   3.8812363  -1.5721230  -3.8936309
  14   3.8812366  -1.5721229   1.5527823
  14   3.8812373   3.8742904  -3.8936309
  14   3.8812376   3.8742905   1.5527824
ATOMS    9
  32   0.0501970  -0.0069720  -0.3256891
  14  -3.9201513  -3.9267946  -3.9639419
  14  -3.9201510  -3.9267945   1.4824714
  14  -3.9201503   1.5196188  -3.9639418
  14  -3.9201500   1.5196189   1.4824714
  14   1.5262621  -3.9267936  -3.9639416
  14   1.5262624  -3.9267935   1.4824717
  14   1.5262631   1.5196198  -3.9639415
  14   1.5262634   1.5196199   1.4824717
  14   0.0477305  -2.7161475  -2.3923346
  14   0.0477308  -2.7161474   3.0540787
  14   0.0477315   2.7302659  -2.3923345
  14   0.0477318   2.7302660   3.0540788
  14  -4.2476566  -1.1937047  -1.2305711
  14  -4.2476563  -1.1937047   4.2158421
  14  -4.2476556   4.2527087  -1.2305711
  14  -4.2476553   4.2527087   4.2158422
  14   1.1987567  -1.1937037  -1.2305708
  14   1.1987571  -1.1937037   4.2158424
  14   1.1987577   4.2527097  -1.2305708
  14   1.1987581   4.2527097   4.2158425
  14  -2.7742316  -0.0066343  -2.3923347
  14  -2.7742313  -0.0066342   3.0540786
  14   2.6721818  -0.0066333  -2.3923344
  14   2.6721821  -0.0066332   3.0540789
  14  -1.2433924  -4.1980625  -1.2869022
  14  -1.2433921  -4.1980624   4.1595111
  14  -1.2433914   1.2483509  -1.2869021
  14  -1.2433911   1.2483510   4.1595112
  14   4.2030210  -4.1980615  -1.2869019
  14   4.2030213  -4.1980614   4.1595114
  14   4.2030220   1.2483519  -1.2869018
  14   4.2030223   1.2483520   4.1595115
  14  -2.7741385  -2.7160899  -0.3100062
  14  -2.7741375   2.7303235  -0.3100062
  14   2.6722749  -2.7160889  -0.3100059
  14   2.6722759   2.7303245  -0.3100059
  14  -1.5571416  -1.5637849  -3.9001999
  14  -1.5571413  -1.5637848   1.5462134
  14  -1.5571406   3.8826285  -3.9001998
  14  -1.5571403   3.8826286   1.5462135
  14   3.8892718  -1.5637839  -3.9001996
  14   3.8892721  -1.5637838   1.5462137
  14   3.8892728   3.8826295  -3.9001995
  14   3.8892731   3.8826296   1.5462138
ATOMS   10
  32   0.0457090  -0.0063486  -0.2965702
  14  -3.9331103  -3.9391596  -3.9729856
  14  -3.9331099  -3.9391595   1.4734277
  14  -3.9331093   1.5072538  -3.9729855
  14  -3.9331089   1.5072539   1.4734278
  14   1.5133031  -3.9391586  -3.9729853
  14   1.5133034  -3.9391585   1.4734280
  14   1.5133041   1.5072548  -3.9729852
  14   1.5133044   1.5072549   1.4734281
  14   0.0434629  -2.7167786  -2.4219168
  14   0.0434633  -2.7167785   3.0244964
  14   0.0434639   2.7296348  -2.4219168
  14   0.0434643   2.7296349   3.0244965
  14  -4.2313345  -1.2104786  -1.2440488
  14  -4.2313342  -1.2104785   4.2023645
  14  -4.2313335   4.2359348  -1.2440487
  14  -4.2313332   4.2359349   4.2023646
  14   1.2150788  -1.2104776  -1.2440485
  14   1.2150792  -1.2104775   4.2023648
  14   1.2150798   4.2359358  -1.2440484
  14   1.2150802   4.2359359   4.2023649
  14  -2.7696696  -0.0060412  -2.4219170
  14  -2.7696693  -0.0060411   3.0244963
  14   2.6767437  -0.0060402  -2.4219166
  14   2.6767441  -0.0060401   3.0244966
  14  -1.2557239  -4.1861744  -1.2953435
  14  -1.2557236  -4.1861743   4.1510698
  14  -1.2557229   1.2602390  -1.2953434
  14  -1.2557226   1.2602391   4.1510699
  14   4.1906894  -4.1861734  -1.2953432
  14   4.1906897  -4.1861733   4.1510701
  14   4.1906904   1.2602400  -1.2953431
  14   4.1906908   1.2602401   4.1510702
  14  -2.7695849  -2.7167262  -0.2822896
  14  -2.7695839   2.7296872  -0.2822896
  14   2.6768285  -2.7167252  -0.2822893
  14   2.6768295   2.7296882  -0.2822892
  14  -1.5414219  -1.5474711  -3.9130501
  14  -1.5414216  -1.5474711   1.5333632
  14  -1.5414209   3.8989422  -3.9130500
  14  -1.5414205   3.8989423   1.5333633
  14   3.9049915  -1.5474701  -3.9130498
  14   3.9049918  -1.5474701   1.5333635
  14   3.9049925   3.8989432  -3.9130497
  14   3.9049928   3.8989433   1.5333636
ATOMS   11
  32   0.0392232  -0.0054477  -0.2544899
  14  -3.9518376  -3.9570285  -3.9860548
  14  -3.9518373  -3.9570284   1.4603585
  14  -3.9518366   1.4893849  -3.9860547
  14  -3.9518363   1.4893850   1.4603585
  14   1.4945758  -3.9570275  -3.9860545
  14   1.4945761  -3.9570274   1.4603588
  14   1.4945768   1.4893859  -3.9860544
  14   1.4945771   1.4893860   1.4603589
  14   0.0372959  -2.7176907  -2.4646668
  14   0.0372962  -2.7176906   2.9817464
  14   0.0372969   2.7287227  -2.4646668
  14   0.0372972   2.7287228   2.9817465
  14  -4.2077471  -1.2347189  -1.2635257
  14  -4.2077468  -1.2347188   4.1828876
  14  -4.2077461   4.2116945  -1.2635256
  14  -4.2077458   4.2116946   4.1828877
  14   1.2386663  -1.2347179  -1.2635254
  14   1.2386666  -1.2347178   4.1828879
  14   1.2386673   4.2116955  -1.2635253
  14   1.2386676   4.2116956   4.1828880
  14  -2.7630770  -0.0051842  -2.4646670
  14  -2.7630767  -0.0051841   2.9817463
  14   2.6833364  -0.0051832  -2.4646667
  14   2.6833367  -0.0051831   2.9817466
  14  -1.2735445  -4.1689946  -1.3075422
  14  -1.2735442  -4.1689945   4.1388710
  14  -1.2735435   1.2774188  -1.3075422
  14  -1.2735432   1.2774189   4.1388711
  14   4.1728689  -4.1689936  -1.3075419
  14   4.1728692  -4.1689935   4.1388713
  14   4.1728699   1.2774198  -1.3075418
  14   4.1728702   1.2774199   4.1388714
  14  -2.7630043  -2.7176458  -0.2422357
  14  -2.7630033   2.7287676  -0.2422356
  14   2.6834090  -2.7176448  -0.2422354
  14   2.6834100   2.7287686  -0.2422353
  14  -1.5187049  -1.5238958  -3.9316202
  14  -1.5187046  -1.5238957   1.5147930
  14  -1.5187039   3.9225176  -3.9316202
  14  -1.5187036   3.9225177   1.5147931
  14   3.9277085  -1.5238948  -3.9316199
  14   3.9277088  -1.5238947   1.5147934
  14   3.9277095   3.9225186  -3.9316198
  14   3.9277098   3.9225187   1.5147934
ATOMS   12
  32   0.0310232  -0.0043088  -0.2012871
  14  -3.9755148  -3.9796204  -4.0025784
  14  -3.9755145  -3.9796203   1.4438349
  14  -3.9755138   1.4667930  -4.0025783
  14  -3.9755135   1.4667930   1.4438349
  14   1.4708986  -3.9796194  -4.0025781
  14   1.4708989  -3.9796193   1.4438352
  14   1.4708996   1.4667940  -4.0025780
  14   1.4708999   1.4667940   1.4438353
  14   0.0294988  -2.7188438  -2.5187163
  14   0.0294991  -2.7188437   2.9276970
  14   0.0294998   2.7275696  -2.5187162
  14   0.0295001   2.7275697   2.9276971
  14  -4.1779251  -1.2653663  -1.2881506
  14  -4.1779248  -1.2653662   4.1582627
  14  -4.1779241   4.1810471  -1.2881505
  14  -4.1779238   4.1810472   4.1582628
  14   1.2684883  -1.2653653  -1.2881503
  14   1.2684886  -1.2653652   4.1582630
  14   1.2684893   4.1810481  -1.2881502
  14   1.2684896   4.1810482   4.1582631
  14  -2.7547418  -0.0041006  -2.5187164
  14  -2.7547415  -0.0041005   2.9276969
  14   2.6916716  -0.0040996  -2.5187161
  14   2.6916719  -0.0040995   2.9276972
  14  -1.2960753  -4.1472740  -1.3229653
  14  -1.2960750  -4.1472739   4.1234480
  14  -1.2960743   1.2991394  -1.3229652
  14  -1.2960740   1.2991395   4.1234481
  14   4.1503381  -4.1472729  -1.3229650
  14   4.1503384  -4.1472729   4.1234483
  14   4.1503391   1.2991404  -1.3229649
  14   4.1503394   1.2991405   4.1234484
  14  -2.7546845  -2.7188084  -0.1915949
  14  -2.7546835   2.7276050  -0.1915948
  14   2.6917289  -2.7188074  -0.1915946
  14   2.6917299   2.7276060  -0.1915945
  14  -1.4899835  -1.4940891  -3.9550987
  14  -1.4899832  -1.4940890   1.4913146
  14  -1.4899825   3.9523243  -3.9550986
  14  -1.4899822   3.9523244   1.4913146
  14   3.9564299  -1.4940881  -3.9550984
  14   3.9564302  -1.4940880   1.4913149
  14   3.9564309   3.9523253  -3.9550983
  14   3.9564312   3.9523254   1.4913149
ATOMS   13
  32   0.0214672  -0.0029815  -0.1392872
  14  -4.0031070  -4.0059480  -4.0218342
  14  -4.0031067  -4.0059479   1.4245791
  14  -4.0031060   1.4404654  -4.0218341
  14  -4.0031057   1.4404655   1.4245791
  14   1.4433064  -4.0059470  -4.0218339
  14   1.4433067  -4.0059469   1.4245794
  14   1.4433074   1.4404664  -4.0218338
  14   1.4433077   1.4404665   1.4245795
  14   0.0204124  -2.7201876  -2.5817029
  14   0.0204127  -2.7201875   2.8647104
  14   0.0204134   2.7262258  -2.5817028
  14   0.0204137   2.7262259   2.8647105
  14  -4.1431720  -1.3010813  -1.3168473
  14  -4.1431717  -1.3010812   4.1295660
  14  -4.1431710   4.1453321  -1.3168472
  14  -4.1431707   4.1453322   4.1295661
  14   1.3032413  -1.3010803  -1.3168469
  14   1.3032417  -1.3010802   4.1295663
  14   1.3032423   4.1453331  -1.3168469
  14   1.3032427   4.1453332   4.1295664
  14  -2.7450284  -0.0028378  -2.5817030
  14  -2.7450281  -0.0028377   2.8647103
  14   2.7013850  -0.0028368  -2.5817027
  14   2.7013853  -0.0028367   2.8647106
  14  -1.3223316  -4.1219617  -1.3409385
  14  -1.3223313  -4.1219617   4.1054747
  14  -1.3223306   1.3244517  -1.3409385
  14  -1.3223303   1.3244517   4.1054748
  14   4.1240818  -4.1219607  -1.3409382
  14   4.1240821  -4.1219607   4.1054750
  14   4.1240828   1.3244527  -1.3409382
  14   4.1240831   1.3244527   4.1054751
  14  -2.7449889  -2.7201632  -0.1325806
  14  -2.7449879   2.7262502  -0.1325805
  14   2.7014245  -2.7201622  -0.1325803
  14   2.7014255   2.7262512  -0.1325802
  14  -1.4565129  -1.4593538  -3.9824594
  14  -1.4565126  -1.4593538   1.4639539
  14  -1.4565119   3.9870596  -3.9824593
  14  -1.4565116   3.9870596   1.4639539
  14   3.9899004  -1.4593528  -3.9824591
  14   3.9899008  -1.4593528   1.4639542
  14   3.9899014   3.9870606  -3.9824590
  14   3.9899018   3.9870606   1.4639542
ATOMS   14
  32   0.0109731  -0.0015238  -0.0711997
  14  -4.0334085  -4.0348605  -4.0429806
  14  -4.0334081  -4.0348604   1.4034326
  14  -4.0334075   1.4115529  -4.0429806
  14  -4.0334071   1.4115530   1.4034327
  14   1.4130049  -4.0348595  -4.0429803
  14   1.4130052  -4.0348594   1.4034329
  14   1.4130059   1.4115539  -4.0429803
  14   1.4130062   1.4115540   1.4034330
  14   0.0104338  -2.7216634  -2.6508739
  14   0.0104341  -2.7216633   2.7955394
  14   0.0104348   2.7247500  -2.6508738
  14   0.0104351   2.7247501   2.7955395
  14  -4.1050067  -1.3403029  -1.3483615
  14  -4.1050064  -1.3403029   4.0980518
  14  -4.1050057   4.1061105  -1.3483614
  14  -4.1050054   4.1061105   4.0980518
  14   1.3414067  -1.3403019  -1.3483612
  14   1.3414070  -1.3403019   4.0980521
  14   1.3414077   4.1061115  -1.3483611
  14   1.3414080   4.1061115   4.0980521
  14  -2.7343613  -0.0014511  -2.6508740
  14  -2.7343610  -0.0014510   2.7955393
  14   2.7120521  -0.0014501  -2.6508737
  14   2.7120524  -0.0014500   2.7955396
  14  -1.3511659  -4.0941642  -1.3606765
  14  -1.3511656  -4.0941642   4.0857367
  14  -1.3511649   1.3522492  -1.3606765
  14  -1.3511646   1.3522492   4.0857368
  14   4.0952475  -4.0941632  -1.3606762
  14   4.0952478  -4.0941632   4.0857370
  14   4.0952485   1.3522502  -1.3606761
  14   4.0952488   1.3522502   4.0857371
  14  -2.7343413  -2.7216511  -0.0677719
  14  -2.7343403   2.7247623  -0.0677718
  14   2.7120721  -2.7216501  -0.0677716
  14   2.7120731   2.7247633  -0.0677715
  14  -1.4197561  -1.4212081  -4.0125065
  14  -1.4197558  -1.4212080   1.4339067
  14  -1.4197551   4.0252053  -4.0125065
  14  -1.4197547   4.0252054   1.4339068
  14   4.0266573  -1.4212071  -4.0125062
  14   4.0266576  -1.4212070   1.4339070
  14   4.0266583   4.0252063  -4.0125062
  14   4.0266586   4.0252064   1.4339071
ATOMS   15
  32  -0.0000007   0.0000004  -0.0000005
  14  -4.0650947  -4.0650944  -4.0650935
  14  -4.0650944  -4.0650943   1.3813197
  14  -4.0650937   1.3813190  -4.0650935
  14  -4.0650934   1.3813191   1.3813198
  14   1.3813187  -4.0650934  -4.0650932
  14   1.3813190  -4.0650933   1.3813200
  14   1.3813197   1.3813200  -4.0650932
  14   1.3813200   1.3813201   1.3813201
  14  -0.0000008  -2.7232066  -2.7232061
  14  -0.0000004  -2.7232065   2.7232072
  14   0.0000002   2.7232068  -2.7232060
  14   0.0000006   2.7232069   2.7232072
  14  -4.0650971  -1.3813171  -1.3813161
  14  -4.0650968  -1.3813170   4.0650972
  14  -4.0650961   4.0650963  -1.3813160
  14  -4.0650958   4.0650964   4.0650973
  14   1.3813162  -1.3813161  -1.3813157
  14   1.3813165  -1.3813160   4.0650975
  14   1.3813172   4.0650973  -1.3813157
  14   1.3813175   4.0650974   4.0650976
  14  -2.7232067  -0.0000010  -2.7232062
  14  -2.7232064  -0.0000009   2.7232070
  14   2.7232067   0.0000000  -2.7232059
  14   2.7232070   0.0000001   2.7232073
  14  -1.3813179  -4.0650963  -1.3813166
  14  -1.3813176  -4.0650962   4.0650967
  14  -1.3813169   1.3813171  -1.3813165
  14  -1.3813166   1.3813171   4.0650968
  14   4.0650954  -4.0650953  -1.3813163
  14   4.0650957  -4.0650952   4.0650970
  14   4.0650964   1.3813181  -1.3813162
  14   4.0650968   1.3813181   4.0650971
  14  -2.7232071  -2.7232070  -0.0000013
  14  -2.7232061   2.7232064  -0.0000013
  14   2.7232063  -2.7232060  -0.0000010
  14   2.7232073   2.7232074  -0.0000010
  14  -1.3813193  -1.3813190  -4.0439269
  14  -1.3813190  -1.3813189   1.4024864
  14  -1.3813183   4.0650944  -4.0439268
  14  -1.3813180   4.0650945   1.4024865
  14   4.0650940  -1.3813180  -4.0439266
  14   4.0650944  -1.3813179   1.4024867
  14   4.0650951   4.0650954  -4.0439265
  14   4.0650954   4.0650955   1.4024868
ATOMS   16
  32  -0.0109745   0.0015246   0.0711987
  14  -4.0967810  -4.0953283  -4.0872064
  14  -4.0967807  -4.0953282   1.3592069
  14  -4.0967800   1.3510851  -4.0872063
  14  -4.0967797   1.3510852   1.3592069
  14   1.3496324  -4.0953273  -4.0872061
  14   1.3496327  -4.0953272   1.3592072
  14   1.3496334   1.3510861  -4.0872060
  14   1.3496337   1.3510862   1.3592072
  14  -0.0104353  -2.7247497  -2.7955384
  14  -0.0104350  -2.7247497   2.6508749
  14  -0.0104343   2.7216636  -2.7955383
  14  -0.0104340   2.7216637   2.6508750
  14  -4.0251876  -1.4223313  -1.4142706
  14  -4.0251873  -1.4223312   4.0321427
  14  -4.0251866   4.0240821  -1.4142705
  14  -4.0251863   4.0240822   4.0321427
  14   1.4212258  -1.4223303  -1.4142703
  14   1.4212261  -1.4223302   4.0321430
  14   1.4212268   4.0240831  -1.4142702
  14   1.4212271   4.0240832   4.0321430
  14  -2.7120520   0.0014492  -2.7955385
  14  -2.7120517   0.0014493   2.6508748
  14   2.7343613   0.0014502  -2.7955382
  14   2.7343617   0.0014503   2.6508751
  14  -1.4114700  -4.0360284  -1.4019566
  14  -1.4114697  -4.0360283   4.0444566
  14  -1.4114690   1.4103850  -1.4019566
  14  -1.4114687   1.4103850   4.0444567
  14   4.0349434  -4.0360274  -1.4019563
  14   4.0349437  -4.0360273   4.0444569
  14   4.0349444   1.4103860  -1.4019563
  14   4.0349447   1.4103860   4.0444570
  14  -2.7120730  -2.7247629   0.0677692
  14  -2.7120720   2.7216505   0.0677693
  14   2.7343404  -2.7247619   0.0677695
  14   2.7343414   2.7216515   0.0677696
  14  -1.3428826  -1.3414299  -4.0753472
  14  -1.3428823  -1.3414298   1.3710660
  14  -1.3428816   4.1049835  -4.0753472
  14  -1.3428813   4.1049836   1.3710661
  14   4.1035308  -1.3414289  -4.0753469
  14   4.1035311  -1.3414288   1.3710664
  14   4.1035318   4.1049845  -4.0753468
  14   4.1035321   4.1049846   1.3710664
ATOMS   17
  32  -0.0214687   0.0029823   0.1392861
  14  -4.1270824  -4.1242408  -4.1083529
  14  -4.1270821  -4.1242408   1.3380604
  14  -4.1270814   1.3221726  -4.1083528
  14  -4.1270811   1.3221726   1.3380605