# --- AXSF block for ---- iev =    19  freq =     469.047459 cm-1
ANIMSTEPS   30
ATOMS    1
  32  -0.0000049   0.0000013  -0.0000002
  14  -4.0968483  -4.0353254  -4.0630838
  14  -4.0968480  -4.0353253   1.3833295
  14  -4.0968473   1.4110880  -4.0630837
  14  -4.0968470   1.4110880   1.3833296
  14   1.3495651  -4.0353244  -4.0630834
  14   1.3495654  -4.0353243   1.3833298
  14   1.3495661   1.4110890  -4.0630834
  14   1.3495664   1.4110890   1.3833299
  14   0.0000142  -2.7141885  -2.7952441
  14   0.0000145  -2.7141884   2.6511692
  14   0.0000152   2.7322249  -2.7952440
  14   0.0000155   2.7322250   2.6511693
  14  -4.0333140  -1.3384557  -1.3924135
  14  -4.0333136  -1.3384556   4.0539998
  14  -4.0333129   4.1079577  -1.3924134
  14  -4.0333126   4.1079578   4.0539998
  14   1.4130994  -1.3384547  -1.3924132
  14   1.4130997  -1.3384546   4.0540001
  14   1.4131004   4.1079587  -1.3924131
  14   1.4131007   4.1079588   4.0540001
  14  -2.7362073   0.0000006  -2.6511683
  14  -2.7362070   0.0000007   2.7952450
  14   2.7102061   0.0000016  -2.6511680
  14   2.7102064   0.0000017   2.7952453
  14  -1.4221799  -4.0948801  -1.3702206
  14  -1.4221796  -4.0948800   4.0761927
  14  -1.4221789   1.3515333  -1.3702205
  14  -1.4221786   1.3515334   4.0761927
  14   4.0242334  -4.0948791  -1.3702203
  14   4.0242337  -4.0948790   4.0761930
  14   4.0242344   1.3515343  -1.3702202
  14   4.0242348   1.3515344   4.0761930
  14  -2.7102287  -2.7322177   0.0000020
  14  -2.7102277   2.7141957   0.0000021
  14   2.7361846  -2.7322167   0.0000024
  14   2.7361856   2.7141967   0.0000024
  14  -1.3404721  -1.4241655  -4.0459381
  14  -1.3404718  -1.4241655   1.4004751
  14  -1.3404711   4.0222478  -4.0459381
  14  -1.3404708   4.0222479   1.4004752
  14   4.1059412  -1.4241645  -4.0459378
  14   4.1059415  -1.4241645   1.4004754
  14   4.1059422   4.0222488  -4.0459378
  14   4.1059425   4.0222489   1.4004755
ATOMS    2
  32  -0.0000089   0.0000021   0.0000002
  14  -4.1272141  -4.0068575  -4.0611618
  14  -4.1272138  -4.0068574   1.3852515
  14  -4.1272131   1.4395559  -4.0611617
  14  -4.1272128   1.4395560   1.3852515
  14   1.3191993  -4.0068565  -4.0611615
  14   1.3191996  -4.0068564   1.3852518
  14   1.3192003   1.4395569  -4.0611614
  14   1.3192006   1.4395570   1.3852518
  14   0.0000286  -2.7055645  -2.8641336
  14   0.0000289  -2.7055645   2.5822796
  14   0.0000296   2.7408489  -2.8641336
  14   0.0000299   2.7408489   2.5822797
  14  -4.0029198  -1.2974676  -1.4030260
  14  -4.0029195  -1.2974675   4.0433873
  14  -4.0029188   4.1489458  -1.4030259
  14  -4.0029185   4.1489459   4.0433874
  14   1.4434935  -1.2974666  -1.4030257
  14   1.4434939  -1.2974665   4.0433876
  14   1.4434945   4.1489468  -1.4030256
  14   1.4434949   4.1489469   4.0433877
  14  -2.7486397   0.0000021  -2.5822787
  14  -2.7486394   0.0000022   2.8641345
  14   2.6977737   0.0000031  -2.5822784
  14   2.6977740   0.0000032   2.8641349
  14  -1.4612561  -4.1233622  -1.3596096
  14  -1.4612557  -4.1233621   4.0868037
  14  -1.4612551   1.3230512  -1.3596095
  14  -1.4612547   1.3230513   4.0868038
  14   3.9851573  -4.1233612  -1.3596093
  14   3.9851576  -4.1233611   4.0868040
  14   3.9851583   1.3230522  -1.3596092
  14   3.9851586   1.3230523   4.0868041
  14  -2.6978176  -2.7408345   0.0000053
  14  -2.6978166   2.7055789   0.0000054
  14   2.7485958  -2.7408335   0.0000056
  14   2.7485968   2.7055799   0.0000057
  14  -1.3014102  -1.4651395  -4.0478615
  14  -1.3014099  -1.4651395   1.3985518
  14  -1.3014092   3.9812739  -4.0478614
  14  -1.3014089   3.9812739   1.3985518
  14   4.1450032  -1.4651385  -4.0478612
  14   4.1450035  -1.4651385   1.3985521
  14   4.1450042   3.9812749  -4.0478611
  14   4.1450045   3.9812749   1.3985522
ATOMS    3
  32  -0.0000126   0.0000029   0.0000005
  14  -4.1548650  -3.9809348  -4.0594117
  14  -4.1548647  -3.9809347   1.3870016
  14  -4.1548640   1.4654786  -4.0594116
  14  -4.1548637   1.4654787   1.3870016
  14   1.2915484  -3.9809338  -4.0594114
  14   1.2915487  -3.9809337   1.3870019
  14   1.2915494   1.4654796  -4.0594113
  14   1.2915497   1.4654797   1.3870019
  14   0.0000416  -2.6977116  -2.9268640
  14   0.0000419  -2.6977116   2.5195493
  14   0.0000426   2.7487018  -2.9268639
  14   0.0000429   2.7487018   2.5195494
  14  -3.9752432  -1.2601440  -1.4126896
  14  -3.9752429  -1.2601440   4.0337237
  14  -3.9752422   4.1862694  -1.4126895
  14  -3.9752419   4.1862694   4.0337238
  14   1.4711702  -1.2601430  -1.4126893
  14   1.4711705  -1.2601430   4.0337240
  14   1.4711712   4.1862704  -1.4126892
  14   1.4711715   4.1862704   4.0337241
  14  -2.7599605   0.0000035  -2.5195484
  14  -2.7599602   0.0000036   2.9268649
  14   2.6864528   0.0000045  -2.5195481
  14   2.6864531   0.0000046   2.9268652
  14  -1.4968385  -4.1492978  -1.3499473
  14  -1.4968382  -4.1492977   4.0964660
  14  -1.4968375   1.2971156  -1.3499472
  14  -1.4968372   1.2971157   4.0964661
  14   3.9495749  -4.1492968  -1.3499469
  14   3.9495752  -4.1492967   4.0964663
  14   3.9495759   1.2971166  -1.3499469
  14   3.9495762   1.2971167   4.0964664
  14  -2.6865161  -2.7486810   0.0000082
  14  -2.6865151   2.6977324   0.0000083
  14   2.7598973  -2.7486800   0.0000085
  14   2.7598983   2.6977334   0.0000086
  14  -1.2658406  -1.5024502  -4.0496129
  14  -1.2658403  -1.5024501   1.3968004
  14  -1.2658396   3.9439632  -4.0496128
  14  -1.2658393   3.9439633   1.3968005
  14   4.1805727  -1.5024492  -4.0496126
  14   4.1805731  -1.5024491   1.3968007
  14   4.1805737   3.9439642  -4.0496125
  14   4.1805741   3.9439643   1.3968008
ATOMS    4
  32  -0.0000157   0.0000035   0.0000008
  14  -4.1785925  -3.9586903  -4.0579099
  14  -4.1785921  -3.9586902   1.3885033
  14  -4.1785915   1.4877231  -4.0579099
  14  -4.1785911   1.4877232   1.3885034
  14   1.2678209  -3.9586893  -4.0579096
  14   1.2678212  -3.9586892   1.3885036
  14   1.2678219   1.4877241  -4.0579095
  14   1.2678222   1.4877242   1.3885037
  14   0.0000528  -2.6909730  -2.9806935
  14   0.0000531  -2.6909729   2.4657198
  14   0.0000538   2.7554404  -2.9806934
  14   0.0000541   2.7554405   2.4657199
  14  -3.9514936  -1.2281164  -1.4209820
  14  -3.9514932  -1.2281163   4.0254312
  14  -3.9514925   4.2182970  -1.4209820
  14  -3.9514922   4.2182971   4.0254313
  14   1.4949198  -1.2281154  -1.4209817
  14   1.4949201  -1.2281153   4.0254315
  14   1.4949208   4.2182980  -1.4209816
  14   1.4949211   4.2182981   4.0254316
  14  -2.7696751   0.0000047  -2.4657189
  14  -2.7696748   0.0000048   2.9806944
  14   2.6767383   0.0000057  -2.4657186
  14   2.6767386   0.0000058   2.9806947
  14  -1.5273721  -4.1715534  -1.3416559
  14  -1.5273718  -4.1715533   4.1047574
  14  -1.5273711   1.2748600  -1.3416558
  14  -1.5273708   1.2748601   4.1047574
  14   3.9190412  -4.1715524  -1.3416556
  14   3.9190415  -4.1715523   4.1047577
  14   3.9190422   1.2748610  -1.3416555
  14   3.9190425   1.2748611   4.1047577
  14  -2.6768181  -2.7554141   0.0000108
  14  -2.6768171   2.6909993   0.0000108
  14   2.7695953  -2.7554131   0.0000111
  14   2.7695963   2.6910003   0.0000112
  14  -1.2353180  -1.5344668  -4.0511158
  14  -1.2353177  -1.5344667   1.3952975
  14  -1.2353170   3.9119466  -4.0511157
  14  -1.2353167   3.9119467   1.3952976
  14   4.2110953  -1.5344658  -4.0511155
  14   4.2110956  -1.5344657   1.3952978
  14   4.2110963   3.9119476  -4.0511154
  14   4.2110966   3.9119477   1.3952979
ATOMS    5
  32  -0.0000182   0.0000041   0.0000010
  14  -4.1973595  -3.9410961  -4.0567221
  14  -4.1973592  -3.9410961   1.3896912
  14  -4.1973585   1.5053173  -4.0567220
  14  -4.1973582   1.5053173   1.3896912
  14   1.2490538  -3.9410951  -4.0567218
  14   1.2490541  -3.9410951   1.3896915
  14   1.2490548   1.5053183  -4.0567217
  14   1.2490551   1.5053183   1.3896915
  14   0.0000617  -2.6856431  -3.0232696
  14   0.0000620  -2.6856430   2.4231437
  14   0.0000627   2.7607703  -3.0232695
  14   0.0000630   2.7607704   2.4231438
  14  -3.9327090  -1.2027843  -1.4275409
  14  -3.9327086  -1.2027842   4.0188724
  14  -3.9327079   4.2436291  -1.4275408
  14  -3.9327076   4.2436292   4.0188725
  14   1.5137044  -1.2027833  -1.4275406
  14   1.5137047  -1.2027832   4.0188727
  14   1.5137054   4.2436301  -1.4275405
  14   1.5137057   4.2436302   4.0188728
  14  -2.7773587   0.0000056  -2.4231428
  14  -2.7773584   0.0000057   3.0232705
  14   2.6690546   0.0000066  -2.4231425
  14   2.6690549   0.0000067   3.0232708
  14  -1.5515225  -4.1891563  -1.3350979
  14  -1.5515222  -4.1891562   4.1113153
  14  -1.5515215   1.2572571  -1.3350979
  14  -1.5515212   1.2572572   4.1113154
  14   3.8948909  -4.1891553  -1.3350976
  14   3.8948912  -4.1891552   4.1113156
  14   3.8948919   1.2572581  -1.3350975
  14   3.8948922   1.2572582   4.1113157
  14  -2.6691476  -2.7607396   0.0000128
  14  -2.6691466   2.6856738   0.0000128
  14   2.7772658  -2.7607386   0.0000131
  14   2.7772668   2.6856748   0.0000132
  14  -1.2111764  -1.5597901  -4.0523045
  14  -1.2111761  -1.5597900   1.3941088
  14  -1.2111754   3.8866233  -4.0523044
  14  -1.2111751   3.8866234   1.3941089
  14   4.2352369  -1.5597891  -4.0523042
  14   4.2352373  -1.5597890   1.3941091
  14   4.2352379   3.8866243  -4.0523041
  14   4.2352383   3.8866244   1.3941092
ATOMS    6
  32  -0.0000199   0.0000044   0.0000011
  14  -4.2103460  -3.9289213  -4.0559002
  14  -4.2103457  -3.9289212   1.3905131
  14  -4.2103450   1.5174921  -4.0559001
  14  -4.2103447   1.5174922   1.3905132
  14   1.2360674  -3.9289203  -4.0558998
  14   1.2360677  -3.9289202   1.3905134
  14   1.2360684   1.5174931  -4.0558998
  14   1.2360687   1.5174932   1.3905135
  14   0.0000678  -2.6819549  -3.0527314
  14   0.0000681  -2.6819548   2.3936818
  14   0.0000688   2.7644585  -3.0527314
  14   0.0000691   2.7644585   2.3936819
  14  -3.9197104  -1.1852550  -1.4320795
  14  -3.9197100  -1.1852549   4.0143338
  14  -3.9197093   4.2611584  -1.4320794
  14  -3.9197090   4.2611585   4.0143339
  14   1.5267030  -1.1852540  -1.4320792
  14   1.5267033  -1.1852539   4.0143341
  14   1.5267040   4.2611594  -1.4320791
  14   1.5267043   4.2611595   4.0143342
  14  -2.7826757   0.0000063  -2.3936809
  14  -2.7826754   0.0000063   3.0527324
  14   2.6637377   0.0000073  -2.3936806
  14   2.6637380   0.0000073   3.0527327
  14  -1.5682341  -4.2013372  -1.3305599
  14  -1.5682338  -4.2013371   4.1158533
  14  -1.5682331   1.2450762  -1.3305599
  14  -1.5682328   1.2450763   4.1158534
  14   3.8781792  -4.2013362  -1.3305596
  14   3.8781795  -4.2013361   4.1158536
  14   3.8781802   1.2450772  -1.3305595
  14   3.8781806   1.2450773   4.1158537
  14  -2.6638397  -2.7644248   0.0000141
  14  -2.6638387   2.6819886   0.0000142
  14   2.7825737  -2.7644238   0.0000145
  14   2.7825747   2.6819896   0.0000145
  14  -1.1944709  -1.5773134  -4.0531270
  14  -1.1944706  -1.5773133   1.3932862
  14  -1.1944699   3.8691000  -4.0531270
  14  -1.1944696   3.8691001   1.3932863
  14   4.2519425  -1.5773124  -4.0531267
  14   4.2519428  -1.5773123   1.3932865
  14   4.2519435   3.8691010  -4.0531267
  14   4.2519438   3.8691011   1.3932866
ATOMS    7
  32  -0.0000208   0.0000046   0.0000012
  14  -4.2169843  -3.9226979  -4.0554800
  14  -4.2169840  -3.9226978   1.3909333
  14  -4.2169833   1.5237155  -4.0554799
  14  -4.2169830   1.5237156   1.3909333
  14   1.2294290  -3.9226969  -4.0554797
  14   1.2294294  -3.9226968   1.3909336
  14   1.2294300   1.5237165  -4.0554796
  14   1.2294304   1.5237166   1.3909337
  14   0.0000709  -2.6800696  -3.0677915
  14   0.0000712  -2.6800695   2.3786218
  14   0.0000719   2.7663438  -3.0677914
  14   0.0000722   2.7663438   2.3786219
  14  -3.9130659  -1.1762945  -1.4343995
  14  -3.9130655  -1.1762944   4.0120138
  14  -3.9130648   4.2701189  -1.4343994
  14  -3.9130645   4.2701190   4.0120139
  14   1.5333475  -1.1762935  -1.4343992
  14   1.5333478  -1.1762934   4.0120141
  14   1.5333485   4.2701199  -1.4343991
  14   1.5333488   4.2701200   4.0120142
  14  -2.7853936   0.0000066  -2.3786209
  14  -2.7853933   0.0000067   3.0677924
  14   2.6610198   0.0000076  -2.3786206
  14   2.6610201   0.0000077   3.0677927
  14  -1.5767766  -4.2075637  -1.3282402
  14  -1.5767763  -4.2075636   4.1181730
  14  -1.5767756   1.2388497  -1.3282402
  14  -1.5767753   1.2388498   4.1181731
  14   3.8696368  -4.2075627  -1.3282399
  14   3.8696371  -4.2075626   4.1181733
  14   3.8696378   1.2388507  -1.3282399
  14   3.8696381   1.2388508   4.1181734
  14  -2.6611265  -2.7663085   0.0000149
  14  -2.6611255   2.6801049   0.0000149
  14   2.7852869  -2.7663075   0.0000152
  14   2.7852879   2.6801059   0.0000152
  14  -1.1859315  -1.5862707  -4.0535475
  14  -1.1859312  -1.5862707   1.3928658
  14  -1.1859305   3.8601426  -4.0535474
  14  -1.1859302   3.8601427   1.3928658
  14   4.2604819  -1.5862697  -4.0535472
  14   4.2604822  -1.5862697   1.3928661
  14   4.2604829   3.8601436  -4.0535471
  14   4.2604832   3.8601437   1.3928662
ATOMS    8
  32  -0.0000208   0.0000046   0.0000012
  14  -4.2169843  -3.9226979  -4.0554800
  14  -4.2169840  -3.9226978   1.3909333
  14  -4.2169833   1.5237155  -4.0554799
  14  -4.2169830   1.5237156   1.3909333
  14   1.2294290  -3.9226969  -4.0554797
  14   1.2294294  -3.9226968   1.3909336
  14   1.2294300   1.5237165  -4.0554796
  14   1.2294304   1.5237166   1.3909337
  14   0.0000709  -2.6800696  -3.0677915
  14   0.0000712  -2.6800695   2.3786218
  14   0.0000719   2.7663438  -3.0677914
  14   0.0000722   2.7663438   2.3786219
  14  -3.9130659  -1.1762945  -1.4343995
  14  -3.9130655  -1.1762944   4.0120138
  14  -3.9130648   4.2701189  -1.4343994
  14  -3.9130645   4.2701190   4.0120139
  14   1.5333475  -1.1762935  -1.4343992
  14   1.5333478  -1.1762934   4.0120141
  14   1.5333485   4.2701199  -1.4343991
  14   1.5333488   4.2701200   4.0120142
  14  -2.7853936   0.0000066  -2.3786209
  14  -2.7853933   0.0000067   3.0677924
  14   2.6610198   0.0000076  -2.3786206
  14   2.6610201   0.0000077   3.0677927
  14  -1.5767766  -4.2075637  -1.3282402
  14  -1.5767763  -4.2075636   4.1181730
  14  -1.5767756   1.2388497  -1.3282402
  14  -1.5767753   1.2388498   4.1181731
  14   3.8696368  -4.2075627  -1.3282399
  14   3.8696371  -4.2075626   4.1181733
  14   3.8696378   1.2388507  -1.3282399
  14   3.8696381   1.2388508   4.1181734
  14  -2.6611265  -2.7663085   0.0000149
  14  -2.6611255   2.6801049   0.0000149
  14   2.7852869  -2.7663075   0.0000152
  14   2.7852879   2.6801059   0.0000152
  14  -1.1859315  -1.5862707  -4.0535475
  14  -1.1859312  -1.5862707   1.3928658
  14  -1.1859305   3.8601426  -4.0535474
  14  -1.1859302   3.8601427   1.3928658
  14   4.2604819  -1.5862697  -4.0535472
  14   4.2604822  -1.5862697   1.3928661
  14   4.2604829   3.8601436  -4.0535471
  14   4.2604832   3.8601437   1.3928662
ATOMS    9
  32  -0.0000199   0.0000044   0.0000011
  14  -4.2103460  -3.9289213  -4.0559002
  14  -4.2103457  -3.9289212   1.3905131
  14  -4.2103450   1.5174921  -4.0559001
  14  -4.2103447   1.5174922   1.3905132
  14   1.2360674  -3.9289203  -4.0558998
  14   1.2360677  -3.9289202   1.3905134
  14   1.2360684   1.5174931  -4.0558998
  14   1.2360687   1.5174932   1.3905135
  14   0.0000678  -2.6819549  -3.0527314
  14   0.0000681  -2.6819548   2.3936818
  14   0.0000688   2.7644585  -3.0527314
  14   0.0000691   2.7644585   2.3936819
  14  -3.9197104  -1.1852550  -1.4320795
  14  -3.9197100  -1.1852549   4.0143338
  14  -3.9197093   4.2611584  -1.4320794
  14  -3.9197090   4.2611585   4.0143339
  14   1.5267030  -1.1852540  -1.4320792
  14   1.5267033  -1.1852539   4.0143341
  14   1.5267040   4.2611594  -1.4320791
  14   1.5267043   4.2611595   4.0143342
  14  -2.7826757   0.0000063  -2.3936809
  14  -2.7826754   0.0000063   3.0527324
  14   2.6637377   0.0000073  -2.3936806
  14   2.6637380   0.0000073   3.0527327
  14  -1.5682341  -4.2013372  -1.3305599
  14  -1.5682338  -4.2013371   4.1158533
  14  -1.5682331   1.2450762  -1.3305599
  14  -1.5682328   1.2450763   4.1158534
  14   3.8781792  -4.2013362  -1.3305596
  14   3.8781795  -4.2013361   4.1158536
  14   3.8781802   1.2450772  -1.3305595
  14   3.8781806   1.2450773   4.1158537
  14  -2.6638397  -2.7644248   0.0000141
  14  -2.6638387   2.6819886   0.0000142
  14   2.7825737  -2.7644238   0.0000145
  14   2.7825747   2.6819896   0.0000145
  14  -1.1944709  -1.5773134  -4.0531270
  14  -1.1944706  -1.5773133   1.3932862
  14  -1.1944699   3.8691000  -4.0531270
  14  -1.1944696   3.8691001   1.3932863
  14   4.2519425  -1.5773124  -4.0531267
  14   4.2519428  -1.5773123   1.3932865
  14   4.2519435   3.8691010  -4.0531267
  14   4.2519438   3.8691011   1.3932866
ATOMS   10
  32  -0.0000182   0.0000041   0.0000010
  14  -4.1973595  -3.9410961  -4.0567221
  14  -4.1973592  -3.9410961   1.3896912
  14  -4.1973585   1.5053173  -4.0567220
  14  -4.1973582   1.5053173   1.3896912
  14   1.2490538  -3.9410951  -4.0567218
  14   1.2490541  -3.9410951   1.3896915
  14   1.2490548   1.5053183  -4.0567217
  14   1.2490551   1.5053183   1.3896915
  14   0.0000617  -2.6856431  -3.0232696
  14   0.0000620  -2.6856430   2.4231437
  14   0.0000627   2.7607703  -3.0232695
  14   0.0000630   2.7607704   2.4231438
  14  -3.9327090  -1.2027843  -1.4275409
  14  -3.9327086  -1.2027842   4.0188724
  14  -3.9327079   4.2436291  -1.4275408
  14  -3.9327076   4.2436292   4.0188725
  14   1.5137044  -1.2027833  -1.4275406
  14   1.5137047  -1.2027832   4.0188727
  14   1.5137054   4.2436301  -1.4275405
  14   1.5137057   4.2436302   4.0188728
  14  -2.7773587   0.0000056  -2.4231428
  14  -2.7773584   0.0000057   3.0232705
  14   2.6690546   0.0000066  -2.4231425
  14   2.6690549   0.0000067   3.0232708
  14  -1.5515225  -4.1891563  -1.3350979
  14  -1.5515222  -4.1891562   4.1113153
  14  -1.5515215   1.2572571  -1.3350979
  14  -1.5515212   1.2572572   4.1113154
  14   3.8948909  -4.1891553  -1.3350976
  14   3.8948912  -4.1891552   4.1113156
  14   3.8948919   1.2572581  -1.3350975
  14   3.8948922   1.2572582   4.1113157
  14  -2.6691476  -2.7607396   0.0000128
  14  -2.6691466   2.6856738   0.0000128
  14   2.7772658  -2.7607386   0.0000131
  14   2.7772668   2.6856748   0.0000132
  14  -1.2111764  -1.5597901  -4.0523045
  14  -1.2111761  -1.5597900   1.3941088
  14  -1.2111754   3.8866233  -4.0523044
  14  -1.2111751   3.8866234   1.3941089
  14   4.2352369  -1.5597891  -4.0523042
  14   4.2352373  -1.5597890   1.3941091
  14   4.2352379   3.8866243  -4.0523041
  14   4.2352383   3.8866244   1.3941092
ATOMS   11
  32  -0.0000157   0.0000035   0.0000008
  14  -4.1785925  -3.9586903  -4.0579099
  14  -4.1785921  -3.9586902   1.3885033
  14  -4.1785915   1.4877231  -4.0579099
  14  -4.1785911   1.4877232   1.3885034
  14   1.2678209  -3.9586893  -4.0579096
  14   1.2678212  -3.9586892   1.3885036
  14   1.2678219   1.4877241  -4.0579095
  14   1.2678222   1.4877242   1.3885037
  14   0.0000528  -2.6909730  -2.9806935
  14   0.0000531  -2.6909729   2.4657198
  14   0.0000538   2.7554404  -2.9806934
  14   0.0000541   2.7554405   2.4657199
  14  -3.9514936  -1.2281164  -1.4209820
  14  -3.9514932  -1.2281163   4.0254312
  14  -3.9514925   4.2182970  -1.4209820
  14  -3.9514922   4.2182971   4.0254313
  14   1.4949198  -1.2281154  -1.4209817
  14   1.4949201  -1.2281153   4.0254315
  14   1.4949208   4.2182980  -1.4209816
  14   1.4949211   4.2182981   4.0254316
  14  -2.7696751   0.0000047  -2.4657189
  14  -2.7696748   0.0000048   2.9806944
  14   2.6767383   0.0000057  -2.4657186
  14   2.6767386   0.0000058   2.9806947
  14  -1.5273721  -4.1715534  -1.3416559
  14  -1.5273718  -4.1715533   4.1047574
  14  -1.5273711   1.2748600  -1.3416558
  14  -1.5273708   1.2748601   4.1047574
  14   3.9190412  -4.1715524  -1.3416556
  14   3.9190415  -4.1715523   4.1047577
  14   3.9190422   1.2748610  -1.3416555
  14   3.9190425   1.2748611   4.1047577
  14  -2.6768181  -2.7554141   0.0000108
  14  -2.6768171   2.6909993   0.0000108
  14   2.7695953  -2.7554131   0.0000111
  14   2.7695963   2.6910003   0.0000112
  14  -1.2353180  -1.5344668  -4.0511158
  14  -1.2353177  -1.5344667   1.3952975
  14  -1.2353170   3.9119466  -4.0511157
  14  -1.2353167   3.9119467   1.3952976
  14   4.2110953  -1.5344658  -4.0511155
  14   4.2110956  -1.5344657   1.3952978
  14   4.2110963   3.9119476  -4.0511154
  14   4.2110966   3.9119477   1.3952979
ATOMS   12
  32  -0.0000126   0.0000029   0.0000005
  14  -4.1548650  -3.9809348  -4.0594117
  14  -4.1548647  -3.9809347   1.3870016
  14  -4.1548640   1.4654786  -4.0594116
  14  -4.1548637   1.4654787   1.3870016
  14   1.2915484  -3.9809338  -4.0594114
  14   1.2915487  -3.9809337   1.3870019
  14   1.2915494   1.4654796  -4.0594113
  14   1.2915497   1.4654797   1.3870019
  14   0.0000416  -2.6977116  -2.9268640
  14   0.0000419  -2.6977116   2.5195493
  14   0.0000426   2.7487018  -2.9268639
  14   0.0000429   2.7487018   2.5195494
  14  -3.9752432  -1.2601440  -1.4126896
  14  -3.9752429  -1.2601440   4.0337237
  14  -3.9752422   4.1862694  -1.4126895
  14  -3.9752419   4.1862694   4.0337238
  14   1.4711702  -1.2601430  -1.4126893
  14   1.4711705  -1.2601430   4.0337240
  14   1.4711712   4.1862704  -1.4126892
  14   1.4711715   4.1862704   4.0337241
  14  -2.7599605   0.0000035  -2.5195484
  14  -2.7599602   0.0000036   2.9268649
  14   2.6864528   0.0000045  -2.5195481
  14   2.6864531   0.0000046   2.9268652
  14  -1.4968385  -4.1492978  -1.3499473
  14  -1.4968382  -4.1492977   4.0964660
  14  -1.4968375   1.2971156  -1.3499472
  14  -1.4968372   1.2971157   4.0964661
  14   3.9495749  -4.1492968  -1.3499469
  14   3.9495752  -4.1492967   4.0964663
  14   3.9495759   1.2971166  -1.3499469
  14   3.9495762   1.2971167   4.0964664
  14  -2.6865161  -2.7486810   0.0000082
  14  -2.6865151   2.6977324   0.0000083
  14   2.7598973  -2.7486800   0.0000085
  14   2.7598983   2.6977334   0.0000086
  14  -1.2658406  -1.5024502  -4.0496129
  14  -1.2658403  -1.5024501   1.3968004
  14  -1.2658396   3.9439632  -4.0496128
  14  -1.2658393   3.9439633   1.3968005
  14   4.1805727  -1.5024492  -4.0496126
  14   4.1805731  -1.5024491   1.3968007
  14   4.1805737   3.9439642  -4.0496125
  14   4.1805741   3.9439643   1.3968008
ATOMS   13
  32  -0.0000089   0.0000021   0.0000002
  14  -4.1272141  -4.0068575  -4.0611618
  14  -4.1272138  -4.0068574   1.3852515
  14  -4.1272131   1.4395559  -4.0611617
  14  -4.1272128   1.4395560   1.3852515
  14   1.3191993  -4.0068565  -4.0611615
  14   1.3191996  -4.0068564   1.3852518
  14   1.3192003   1.4395569  -4.0611614
  14   1.3192006   1.4395570   1.3852518
  14   0.0000286  -2.7055645  -2.8641336
  14   0.0000289  -2.7055645   2.5822796
  14   0.0000296   2.7408489  -2.8641336
  14   0.0000299   2.7408489   2.5822797
  14  -4.0029198  -1.2974676  -1.4030260
  14  -4.0029195  -1.2974675   4.0433873
  14  -4.0029188   4.1489458  -1.4030259
  14  -4.0029185   4.1489459   4.0433874
  14   1.4434935  -1.2974666  -1.4030257
  14   1.4434939  -1.2974665   4.0433876
  14   1.4434945   4.1489468  -1.4030256
  14   1.4434949   4.1489469   4.0433877
  14  -2.7486397   0.0000021  -2.5822787
  14  -2.7486394   0.0000022   2.8641345
  14   2.6977737   0.0000031  -2.5822784
  14   2.6977740   0.0000032   2.8641349
  14  -1.4612561  -4.1233622  -1.3596096
  14  -1.4612557  -4.1233621   4.0868037
  14  -1.4612551   1.3230512  -1.3596095
  14  -1.4612547   1.3230513   4.0868038
  14   3.9851573  -4.1233612  -1.3596093
  14   3.9851576  -4.1233611   4.0868040
  14   3.9851583   1.3230522  -1.3596092
  14   3.9851586   1.3230523   4.0868041
  14  -2.6978176  -2.7408345   0.0000053
  14  -2.6978166   2.7055789   0.0000054
  14   2.7485958  -2.7408335   0.0000056
  14   2.7485968   2.7055799   0.0000057
  14  -1.3014102  -1.4651395  -4.0478615
  14  -1.3014099  -1.4651395   1.3985518
  14  -1.3014092   3.9812739  -4.0478614
  14  -1.3014089   3.9812739   1.3985518
  14   4.1450032  -1.4651385  -4.0478612
  14   4.1450035  -1.4651385   1.3985521
  14   4.1450042   3.9812749  -4.0478611
  14   4.1450045   3.9812749   1.3985522
ATOMS   14
  32  -0.0000049   0.0000013  -0.0000002
  14  -4.0968483  -4.0353254  -4.0630838
  14  -4.0968480  -4.0353253   1.3833295
  14  -4.0968473   1.4110880  -4.0630837
  14  -4.0968470   1.4110880   1.3833296
  14   1.3495651  -4.0353244  -4.0630834
  14   1.3495654  -4.0353243   1.3833298
  14   1.3495661   1.4110890  -4.0630834
  14   1.3495664   1.4110890   1.3833299
  14   0.0000142  -2.7141885  -2.7952441
  14   0.0000145  -2.7141884   2.6511692
  14   0.0000152   2.7322249  -2.7952440
  14   0.0000155   2.7322250   2.6511693
  14  -4.0333140  -1.3384557  -1.3924135
  14  -4.0333136  -1.3384556   4.0539998
  14  -4.0333129   4.1079577  -1.3924134
  14  -4.0333126   4.1079578   4.0539998
  14   1.4130994  -1.3384547  -1.3924132
  14   1.4130997  -1.3384546   4.0540001
  14   1.4131004   4.1079587  -1.3924131
  14   1.4131007   4.1079588   4.0540001
  14  -2.7362073   0.0000006  -2.6511683
  14  -2.7362070   0.0000007   2.7952450
  14   2.7102061   0.0000016  -2.6511680
  14   2.7102064   0.0000017   2.7952453
  14  -1.4221799  -4.0948801  -1.3702206
  14  -1.4221796  -4.0948800   4.0761927
  14  -1.4221789   1.3515333  -1.3702205
  14  -1.4221786   1.3515334   4.0761927
  14   4.0242334  -4.0948791  -1.3702203
  14   4.0242337  -4.0948790   4.0761930
  14   4.0242344   1.3515343  -1.3702202
  14   4.0242348   1.3515344   4.0761930
  14  -2.7102287  -2.7322177   0.0000020
  14  -2.7102277   2.7141957   0.0000021
  14   2.7361846  -2.7322167   0.0000024
  14   2.7361856   2.7141967   0.0000024
  14  -1.3404721  -1.4241655  -4.0459381
  14  -1.3404718  -1.4241655   1.4004751
  14  -1.3404711   4.0222478  -4.0459381
  14  -1.3404708   4.0222479   1.4004752
  14   4.1059412  -1.4241645  -4.0459378
  14   4.1059415  -1.4241645   1.4004754
  14   4.1059422   4.0222488  -4.0459378
  14   4.1059425   4.0222489   1.4004755
ATOMS   15
  32  -0.0000007   0.0000004  -0.0000005
  14  -4.0650947  -4.0650944  -4.0650935
  14  -4.0650944  -4.0650943   1.3813197
  14  -4.0650937   1.3813190  -4.0650935
  14  -4.0650934   1.3813191   1.3813198
  14   1.3813187  -4.0650934  -4.0650932
  14   1.3813190  -4.0650933   1.3813200
  14   1.3813197   1.3813200  -4.0650932
  14   1.3813200   1.3813201   1.3813201
  14  -0.0000008  -2.7232066  -2.7232061
  14  -0.0000004  -2.7232065   2.7232072
  14   0.0000002   2.7232068  -2.7232060
  14   0.0000006   2.7232069   2.7232072
  14  -4.0650971  -1.3813171  -1.3813161
  14  -4.0650968  -1.3813170   4.0650972
  14  -4.0650961   4.0650963  -1.3813160
  14  -4.0650958   4.0650964   4.0650973
  14   1.3813162  -1.3813161  -1.3813157
  14   1.3813165  -1.3813160   4.0650975
  14   1.3813172   4.0650973  -1.3813157
  14   1.3813175   4.0650974   4.0650976
  14  -2.7232067  -0.0000009  -2.7232062
  14  -2.7232064  -0.0000009   2.7232070
  14   2.7232067   0.0000001  -2.7232059
  14   2.7232070   0.0000001   2.7232073
  14  -1.3813179  -4.0650963  -1.3813166
  14  -1.3813176  -4.0650962   4.0650967
  14  -1.3813169   1.3813171  -1.3813165
  14  -1.3813166   1.3813171   4.0650968
  14   4.0650954  -4.0650953  -1.3813163
  14   4.0650957  -4.0650952   4.0650970
  14   4.0650964   1.3813181  -1.3813162
  14   4.0650968   1.3813181   4.0650971
  14  -2.7232071  -2.7232070  -0.0000013
  14  -2.7232061   2.7232064  -0.0000013
  14   2.7232063  -2.7232060  -0.0000010
  14   2.7232073   2.7232074  -0.0000009
  14  -1.3813193  -1.3813190  -4.0439269
  14  -1.3813190  -1.3813189   1.4024864
  14  -1.3813183   4.0650944  -4.0439268
  14  -1.3813180   4.0650945   1.4024865
  14   4.0650940  -1.3813180  -4.0439266
  14   4.0650944  -1.3813179   1.4024867
  14   4.0650951   4.0650954  -4.0439265
  14   4.0650954   4.0650955   1.4024868
ATOMS   16
  32   0.0000035  -0.0000005  -0.0000009
  14  -4.0333412  -4.0948634  -4.0671033
  14  -4.0333408  -4.0948633   1.3793100
  14  -4.0333402   1.3515500  -4.0671032
  14  -4.0333398   1.3515501   1.3793100
  14   1.4130722  -4.0948624  -4.0671030
  14   1.4130725  -4.0948623   1.3793103
  14   1.4130732   1.3515510  -4.0671029
  14   1.4130735   1.3515511   1.3793103
  14  -0.0000157  -2.7322246  -2.6511682
  14  -0.0000154  -2.7322246   2.7952451
  14  -0.0000147   2.7141888  -2.6511681
  14  -0.0000144   2.7141888   2.7952452
  14  -4.0968803  -1.4241785  -1.3702186
  14  -4.0968800  -1.4241784   4.0761947
  14  -4.0968793   4.0222349  -1.3702185
  14  -4.0968790   4.0222349   4.0761947
  14   1.3495330  -1.4241775  -1.3702183
  14   1.3495333  -1.4241774   4.0761950
  14   1.3495340   4.0222359  -1.3702182
  14   1.3495343   4.0222359   4.0761950
  14  -2.7102061  -0.0000025  -2.7952442
  14  -2.7102058  -0.0000024   2.6511691
  14   2.7362073  -0.0000015  -2.7952439
  14   2.7362076  -0.0000014   2.6511694
  14  -1.3404559  -4.0353125  -1.3924126
  14  -1.3404556  -4.0353125   4.0540007
  14  -1.3404549   1.4111009  -1.3924125
  14  -1.3404546   1.4111009   4.0540008
  14   4.1059574  -4.0353115  -1.3924123
  14   4.1059577  -4.0353115   4.0540010
  14   4.1059584   1.4111019  -1.3924122
  14   4.1059587   1.4111019   4.0540011
  14  -2.7361855  -2.7141963  -0.0000047
  14  -2.7361845   2.7322171  -0.0000046
  14   2.7102279  -2.7141953  -0.0000044
  14   2.7102289   2.7322181  -0.0000043
  14  -1.4221665  -1.3384724  -4.0419156
  14  -1.4221662  -1.3384723   1.4044976
  14  -1.4221655   4.1079410  -4.0419156
  14  -1.4221652   4.1079411   1.4044977
  14   4.0242469  -1.3384714  -4.0419153
  14   4.0242472  -1.3384713   1.4044980
  14   4.0242479   4.1079420  -4.0419152
  14   4.0242482   4.1079421   1.4044980
ATOMS   17
  32   0.0000075  -0.0000013  -0.0000012
  14  -4.0029754  -4.1233313  -4.0690252
  14  -4.0029751  -4.1233312   1.3773880
  14  -4.0029744   1.3230821  -4.0690252
  14  -4.0029741   1.3230822   1.3773881