# ---- XSF block for ---- iev =    16  freq =     444.780836 cm-1
ATOMS
  32  -0.0000007   0.0000004  -0.0000005    -0.0008043  -0.0001533   0.0065914
  14  -4.0650947  -4.0650944  -4.0650935    -0.0119778  -0.0113315  -0.0047008
  14  -4.0650944  -4.0650943   1.3813197    -0.0119778  -0.0113315  -0.0047008
  14  -4.0650937   1.3813190  -4.0650935    -0.0119778  -0.0113315  -0.0047008
  14  -4.0650934   1.3813191   1.3813198    -0.0119778  -0.0113315  -0.0047008
  14   1.3813187  -4.0650934  -4.0650932    -0.0119778  -0.0113315  -0.0047008
  14   1.3813190  -4.0650933   1.3813200    -0.0119778  -0.0113315  -0.0047008
  14   1.3813197   1.3813200  -4.0650932    -0.0119778  -0.0113315  -0.0047008
  14   1.3813200   1.3813201   1.3813201    -0.0119778  -0.0113315  -0.0047008
  14  -0.0000008  -2.7232066  -2.7232061     0.0042898  -0.0005113   0.0222050
  14  -0.0000004  -2.7232065   2.7232072     0.0042898  -0.0005113   0.0222050
  14   0.0000002   2.7232068  -2.7232060     0.0042898  -0.0005113   0.0222050
  14   0.0000006   2.7232069   2.7232072     0.0042898  -0.0005113   0.0222050
  14  -4.0650971  -1.3813171  -1.3813161     0.0136028  -0.0145565  -0.0078680
  14  -4.0650968  -1.3813170   4.0650972     0.0136028  -0.0145565  -0.0078680
  14  -4.0650961   4.0650963  -1.3813160     0.0136028  -0.0145565  -0.0078680
  14  -4.0650958   4.0650964   4.0650973     0.0136028  -0.0145565  -0.0078680
  14   1.3813162  -1.3813161  -1.3813157     0.0136028  -0.0145565  -0.0078680
  14   1.3813165  -1.3813160   4.0650975     0.0136028  -0.0145565  -0.0078680
  14   1.3813172   4.0650973  -1.3813157     0.0136028  -0.0145565  -0.0078680
  14   1.3813175   4.0650974   4.0650976     0.0136028  -0.0145565  -0.0078680
  14  -2.7232067  -0.0000010  -2.7232062    -0.0027017   0.0008169   0.0222050
  14  -2.7232064  -0.0000009   2.7232070    -0.0027017   0.0008169   0.0222050
  14   2.7232067   0.0000000  -2.7232059    -0.0027017   0.0008169   0.0222050
  14   2.7232070   0.0000001   2.7232073    -0.0027017   0.0008169   0.0222050
  14  -1.3813179  -4.0650963  -1.3813166    -0.0126115   0.0116578  -0.0052811
  14  -1.3813176  -4.0650962   4.0650967    -0.0126115   0.0116578  -0.0052811
  14  -1.3813169   1.3813171  -1.3813165    -0.0126115   0.0116578  -0.0052811
  14  -1.3813166   1.3813171   4.0650968    -0.0126115   0.0116578  -0.0052811
  14   4.0650954  -4.0650953  -1.3813163    -0.0126115   0.0116578  -0.0052811
  14   4.0650957  -4.0650952   4.0650970    -0.0126115   0.0116578  -0.0052811
  14   4.0650964   1.3813181  -1.3813162    -0.0126115   0.0116578  -0.0052811
  14   4.0650968   1.3813181   4.0650971    -0.0126115   0.0116578  -0.0052811
  14  -2.7232071  -2.7232070  -0.0000013    -0.0027218  -0.0005241  -0.0350988
  14  -2.7232061   2.7232064  -0.0000013    -0.0027218  -0.0005241  -0.0350988
  14   2.7232063  -2.7232060  -0.0000010    -0.0027218  -0.0005241  -0.0350988
  14   2.7232073   2.7232074  -0.0000010    -0.0027218  -0.0005241  -0.0350988
  14  -1.3813193  -1.3813190  -4.0439269     0.0141989   0.0148451  -0.0084955
  14  -1.3813190  -1.3813189   1.4024864     0.0141989   0.0148451  -0.0084955
  14  -1.3813183   4.0650944  -4.0439268     0.0141989   0.0148451  -0.0084955
  14  -1.3813180   4.0650945   1.4024865     0.0141989   0.0148451  -0.0084955
  14   4.0650940  -1.3813180  -4.0439266     0.0141989   0.0148451  -0.0084955
  14   4.0650944  -1.3813179   1.4024867     0.0141989   0.0148451  -0.0084955
  14   4.0650951   4.0650954  -4.0439265     0.0141989   0.0148451  -0.0084955
  14   4.0650954   4.0650955   1.4024868     0.0141989   0.0148451  -0.0084955
