# --- AXSF block for ---- iev =    24  freq =     511.255275 cm-1
ANIMSTEPS   30
ATOMS    1
  32  -0.0016535  -0.0014962  -0.0068957
  14  -4.0686424  -4.0700377  -4.0215706
  14  -4.0686421  -4.0700376   1.4248426
  14  -4.0686414   1.3763757  -4.0215706
  14  -4.0686411   1.3763758   1.4248427
  14   1.3777710  -4.0700367  -4.0215703
  14   1.3777713  -4.0700366   1.4248429
  14   1.3777720   1.3763767  -4.0215703
  14   1.3777723   1.3763768   1.4248430
  14  -0.0170450  -2.7349566  -2.7773018
  14  -0.0170447  -2.7349566   2.6691115
  14  -0.0170440   2.7114567  -2.7773017
  14  -0.0170437   2.7114568   2.6691116
  14  -4.0379012  -1.3802084  -1.3318051
  14  -4.0379009  -1.3802083   4.1146082
  14  -4.0379002   4.0662050  -1.3318050
  14  -4.0378999   4.0662051   4.1146083
  14   1.4085122  -1.3802074  -1.3318047
  14   1.4085125  -1.3802073   4.1146085
  14   1.4085132   4.0662060  -1.3318047
  14   1.4085135   4.0662061   4.1146086
  14  -2.7361793  -0.0154484  -2.7772863
  14  -2.7361790  -0.0154483   2.6691270
  14   2.7102340  -0.0154474  -2.7772860
  14   2.7102344  -0.0154473   2.6691273
  14  -1.3793827  -4.0387268  -1.3323670
  14  -1.3793824  -4.0387268   4.1140463
  14  -1.3793817   1.4076866  -1.3323669
  14  -1.3793814   1.4076866   4.1140464
  14   4.0670307  -4.0387258  -1.3323667
  14   4.0670310  -4.0387258   4.1140466
  14   4.0670317   1.4076876  -1.3323666
  14   4.0670320   1.4076876   4.1140467
  14  -2.7361814  -2.7349602  -0.0710789
  14  -2.7361804   2.7114532  -0.0710788
  14   2.7102320  -2.7349592  -0.0710786
  14   2.7102330   2.7114542  -0.0710785
  14  -1.3596280  -1.3610311  -3.9888488
  14  -1.3596277  -1.3610311   1.4575645
  14  -1.3596270   4.0853822  -3.9888487
  14  -1.3596267   4.0853823   1.4575645
  14   4.0867853  -1.3610301  -3.9888485
  14   4.0867856  -1.3610301   1.4575648
  14   4.0867863   4.0853832  -3.9888484
  14   4.0867866   4.0853833   1.4575648
ATOMS    2
  32  -0.0032340  -0.0029274  -0.0134895
  14  -4.0720350  -4.0747650  -3.9799499
  14  -4.0720346  -4.0747649   1.4664634
  14  -4.0720340   1.3716484  -3.9799498
  14  -4.0720336   1.3716485   1.4664634
  14   1.3743784  -4.0747640  -3.9799496
  14   1.3743787  -4.0747639   1.4664637
  14   1.3743794   1.3716494  -3.9799495
  14   1.3743797   1.3716495   1.4664638
  14  -0.0333444  -2.7461932  -2.8290332
  14  -0.0333441  -2.7461931   2.6173801
  14  -0.0333434   2.7002202  -2.8290331
  14  -0.0333431   2.7002203   2.6173802
  14  -4.0118938  -1.3791481  -1.2844579
  14  -4.0118935  -1.3791480   4.1619553
  14  -4.0118928   4.0672653  -1.2844578
  14  -4.0118925   4.0672654   4.1619554
  14   1.4345196  -1.3791471  -1.2844576
  14   1.4345199  -1.3791470   4.1619557
  14   1.4345206   4.0672663  -1.2844575
  14   1.4345209   4.0672664   4.1619557
  14  -2.7485850  -0.0302207  -2.8290028
  14  -2.7485847  -0.0302206   2.6174105
  14   2.6978284  -0.0302197  -2.8290025
  14   2.6978287  -0.0302196   2.6174108
  14  -1.3775321  -4.0135098  -1.2855567
  14  -1.3775318  -4.0135098   4.1608566
  14  -1.3775311   1.4329036  -1.2855566
  14  -1.3775308   1.4329036   4.1608567
  14   4.0688813  -4.0135088  -1.2855564
  14   4.0688816  -4.0135088   4.1608569
  14   4.0688823   1.4329046  -1.2855563
  14   4.0688826   1.4329046   4.1608570
  14  -2.7485885  -2.7461997  -0.1390500
  14  -2.7485875   2.7002136  -0.1390499
  14   2.6978248  -2.7461987  -0.1390497
  14   2.6978258   2.7002146  -0.1390496
  14  -1.3388848  -1.3416300  -3.9361779
  14  -1.3388845  -1.3416299   1.5102353
  14  -1.3388838   4.1047834  -3.9361779
  14  -1.3388835   4.1047835   1.5102354
  14   4.1075286  -1.3416290  -3.9361776
  14   4.1075289  -1.3416289   1.5102357
  14   4.1075296   4.1047844  -3.9361775
  14   4.1075299   4.1047845   1.5102357
ATOMS    3
  32  -0.0046732  -0.0042306  -0.0194938
  14  -4.0751242  -4.0790696  -3.9420503
  14  -4.0751239  -4.0790695   1.5043629
  14  -4.0751232   1.3673438  -3.9420503
  14  -4.0751229   1.3673439   1.5043630
  14   1.3712892  -4.0790686  -3.9420500
  14   1.3712895  -4.0790685   1.5043632
  14   1.3712902   1.3673448  -3.9420500
  14   1.3712905   1.3673449   1.5043633
  14  -0.0481864  -2.7564251  -2.8761394
  14  -0.0481861  -2.7564251   2.5702739
  14  -0.0481854   2.6899883  -2.8761393
  14  -0.0481851   2.6899883   2.5702739
  14  -3.9882117  -1.3781826  -1.2413440
  14  -3.9882114  -1.3781825   4.2050693
  14  -3.9882107   4.0682308  -1.2413439
  14  -3.9882104   4.0682308   4.2050694
  14   1.4582017  -1.3781816  -1.2413436
  14   1.4582020  -1.3781815   4.2050696
  14   1.4582027   4.0682318  -1.2413436
  14   1.4582030   4.0682318   4.2050697
  14  -2.7598816  -0.0436722  -2.8760955
  14  -2.7598813  -0.0436722   2.5703178
  14   2.6865318  -0.0436712  -2.8760951
  14   2.6865321  -0.0436712   2.5703181
  14  -1.3758469  -3.9905474  -1.2429316
  14  -1.3758466  -3.9905473   4.2034817
  14  -1.3758459   1.4558660  -1.2429315
  14  -1.3758456   1.4558661   4.2034818
  14   4.0705665  -3.9905464  -1.2429313
  14   4.0705668  -3.9905463   4.2034820
  14   4.0705675   1.4558670  -1.2429312
  14   4.0705678   1.4558671   4.2034821
  14  -2.7598864  -2.7564344  -0.2009440
  14  -2.7598854   2.6899790  -0.2009439
  14   2.6865269  -2.7564334  -0.2009437
  14   2.6865279   2.6899800  -0.2009436
  14  -1.3199961  -1.3239635  -3.8882162
  14  -1.3199958  -1.3239634   1.5581971
  14  -1.3199951   4.1224499  -3.8882161
  14  -1.3199948   4.1224500   1.5581972
  14   4.1264173  -1.3239625  -3.8882159
  14   4.1264176  -1.3239624   1.5581974
  14   4.1264183   4.1224509  -3.8882158
  14   4.1264186   4.1224510   1.5581975
ATOMS    4
  32  -0.0059082  -0.0053489  -0.0246461
  14  -4.0777752  -4.0827634  -3.9095284
  14  -4.0777748  -4.0827633   1.5368849
  14  -4.0777742   1.3636500  -3.9095283
  14  -4.0777738   1.3636501   1.5368850
  14   1.3686382  -4.0827624  -3.9095281
  14   1.3686385  -4.0827623   1.5368852
  14   1.3686392   1.3636510  -3.9095280
  14   1.3686395   1.3636511   1.5368853
  14  -0.0609226  -2.7652052  -2.9165617
  14  -0.0609222  -2.7652052   2.5298515
  14  -0.0609216   2.6812081  -2.9165617
  14  -0.0609212   2.6812082   2.5298516
  14  -3.9678898  -1.3773541  -1.2043474
  14  -3.9678895  -1.3773541   4.2420658
  14  -3.9678888   4.0690593  -1.2043474
  14  -3.9678885   4.0690593   4.2420659
  14   1.4785236  -1.3773531  -1.2043471
  14   1.4785239  -1.3773531   4.2420661
  14   1.4785246   4.0690603  -1.2043471
  14   1.4785249   4.0690603   4.2420662
  14  -2.7695752  -0.0552152  -2.9165061
  14  -2.7695749  -0.0552151   2.5299071
  14   2.6768381  -0.0552142  -2.9165058
  14   2.6768385  -0.0552141   2.5299074
  14  -1.3744008  -3.9708431  -1.2063545
  14  -1.3744005  -3.9708430   4.2400587
  14  -1.3743998   1.4755703  -1.2063545
  14  -1.3743995   1.4755703   4.2400588
  14   4.0720125  -3.9708421  -1.2063542
  14   4.0720128  -3.9708420   4.2400590
  14   4.0720135   1.4755713  -1.2063542
  14   4.0720139   1.4755713   4.2400591
  14  -2.7695813  -2.7652168  -0.2540558
  14  -2.7695803   2.6811965  -0.2540557
  14   2.6768321  -2.7652158  -0.2540555
  14   2.6768331   2.6811975  -0.2540554
  14  -1.3037876  -1.3088036  -3.8470597
  14  -1.3037873  -1.3088036   1.5993535
  14  -1.3037866   4.1376098  -3.8470597
  14  -1.3037862   4.1376098   1.5993536
  14   4.1426258  -1.3088026  -3.8470594
  14   4.1426261  -1.3088026   1.5993538
  14   4.1426268   4.1376108  -3.8470594
  14   4.1426271   4.1376108   1.5993539
ATOMS    5
  32  -0.0068850  -0.0062334  -0.0287213
  14  -4.0798719  -4.0856850  -3.8838053
  14  -4.0798716  -4.0856849   1.5626079
  14  -4.0798709   1.3607284  -3.8838053
  14  -4.0798706   1.3607285   1.5626080
  14   1.3665415  -4.0856840  -3.8838050
  14   1.3665418  -4.0856839   1.5626082
  14   1.3665425   1.3607294  -3.8838050
  14   1.3665428   1.3607295   1.5626083
  14  -0.0709961  -2.7721498  -2.9485335
  14  -0.0709958  -2.7721497   2.4978798
  14  -0.0709951   2.6742636  -2.9485334
  14  -0.0709948   2.6742636   2.4978798
  14  -3.9518164  -1.3766989  -1.1750853
  14  -3.9518161  -1.3766988   4.2713280
  14  -3.9518154   4.0697145  -1.1750852
  14  -3.9518151   4.0697146   4.2713280
  14   1.4945970  -1.3766978  -1.1750850
  14   1.4945973  -1.3766978   4.2713283
  14   1.4945980   4.0697155  -1.1750849
  14   1.4945983   4.0697156   4.2713283
  14  -2.7772424  -0.0643449  -2.9484687
  14  -2.7772421  -0.0643449   2.4979446
  14   2.6691710  -0.0643439  -2.9484684
  14   2.6691713  -0.0643439   2.4979449
  14  -1.3732571  -3.9552582  -1.1774242
  14  -1.3732568  -3.9552581   4.2689891
  14  -1.3732561   1.4911552  -1.1774241
  14  -1.3732558   1.4911553   4.2689891
  14   4.0731563  -3.9552571  -1.1774239
  14   4.0731566  -3.9552571   4.2689894
  14   4.0731573   1.4911562  -1.1774238
  14   4.0731576   1.4911563   4.2689895
  14  -2.7772493  -2.7721633  -0.2960643
  14  -2.7772483   2.6742501  -0.2960642
  14   2.6691640  -2.7721623  -0.2960640
  14   2.6691650   2.6742511  -0.2960639
  14  -1.2909675  -1.2968131  -3.8145073
  14  -1.2909672  -1.2968130   1.6319059
  14  -1.2909665   4.1496003  -3.8145073
  14  -1.2909662   4.1496004   1.6319060
  14   4.1554459  -1.2968121  -3.8145070
  14   4.1554462  -1.2968120   1.6319062
  14   4.1554469   4.1496013  -3.8145070
  14   4.1554472   4.1496014   1.6319063
ATOMS    6
  32  -0.0075609  -0.0068455  -0.0315412
  14  -4.0813228  -4.0877067  -3.8660055
  14  -4.0813225  -4.0877066   1.5804078
  14  -4.0813218   1.3587067  -3.8660054
  14  -4.0813215   1.3587068   1.5804079
  14   1.3650906  -4.0877057  -3.8660052
  14   1.3650909  -4.0877056   1.5804081
  14   1.3650916   1.3587077  -3.8660051
  14   1.3650919   1.3587078   1.5804082
  14  -0.0779668  -2.7769553  -2.9706574
  14  -0.0779665  -2.7769553   2.4757559
  14  -0.0779658   2.6694581  -2.9706573
  14  -0.0779655   2.6694581   2.4757560
  14  -3.9406939  -1.3762454  -1.1548364
  14  -3.9406935  -1.3762453   4.2915768
  14  -3.9406928   4.0701680  -1.1548364
  14  -3.9406925   4.0701681   4.2915769
  14   1.5057195  -1.3762444  -1.1548361
  14   1.5057198  -1.3762443   4.2915771
  14   1.5057205   4.0701690  -1.1548361
  14   1.5057208   4.0701691   4.2915772
  14  -2.7825479  -0.0706626  -2.9705862
  14  -2.7825476  -0.0706625   2.4758271
  14   2.6638655  -0.0706616  -2.9705859
  14   2.6638658  -0.0706615   2.4758274
  14  -1.3724656  -3.9444736  -1.1574049
  14  -1.3724653  -3.9444736   4.2890083
  14  -1.3724646   1.5019398  -1.1574049
  14  -1.3724643   1.5019398   4.2890084
  14   4.0739478  -3.9444726  -1.1574046
  14   4.0739481  -3.9444726   4.2890086
  14   4.0739488   1.5019408  -1.1574045
  14   4.0739491   1.5019408   4.2890087
  14  -2.7825555  -2.7769701  -0.3251333
  14  -2.7825545   2.6694433  -0.3251333
  14   2.6638579  -2.7769691  -0.3251330
  14   2.6638589   2.6694443  -0.3251329
  14  -1.2820963  -1.2885158  -3.7919817
  14  -1.2820960  -1.2885157   1.6544316
  14  -1.2820953   4.1578976  -3.7919816
  14  -1.2820950   4.1578976   1.6544317
  14   4.1643171  -1.2885148  -3.7919814
  14   4.1643174  -1.2885147   1.6544319
  14   4.1643181   4.1578986  -3.7919813
  14   4.1643184   4.1578986   1.6544320
ATOMS    7
  32  -0.0079064  -0.0071583  -0.0329827
  14  -4.0820645  -4.0887401  -3.8569067
  14  -4.0820641  -4.0887400   1.5895066
  14  -4.0820635   1.3576733  -3.8569066
  14  -4.0820631   1.3576733   1.5895066
  14   1.3643489  -4.0887391  -3.8569064
  14   1.3643492  -4.0887390   1.5895069
  14   1.3643499   1.3576743  -3.8569063
  14   1.3643502   1.3576743   1.5895070
  14  -0.0815300  -2.7794118  -2.9819665
  14  -0.0815297  -2.7794117   2.4644468
  14  -0.0815290   2.6670016  -2.9819664
  14  -0.0815287   2.6670017   2.4644469
  14  -3.9350084  -1.3760136  -1.1444858
  14  -3.9350080  -1.3760135   4.3019274
  14  -3.9350073   4.0703998  -1.1444857
  14  -3.9350070   4.0703999   4.3019275
  14   1.5114050  -1.3760126  -1.1444855
  14   1.5114053  -1.3760125   4.3019278
  14   1.5114060   4.0704008  -1.1444854
  14   1.5114063   4.0704009   4.3019278
  14  -2.7852599  -0.0738920  -2.9818920
  14  -2.7852596  -0.0738919   2.4645213
  14   2.6611535  -0.0738910  -2.9818917
  14   2.6611538  -0.0738909   2.4645216
  14  -1.3720610  -3.9389609  -1.1471717
  14  -1.3720607  -3.9389608   4.2992416
  14  -1.3720600   1.5074525  -1.1471716
  14  -1.3720597   1.5074526   4.2992417
  14   4.0743523  -3.9389599  -1.1471714
  14   4.0743526  -3.9389598   4.2992419
  14   4.0743533   1.5074535  -1.1471713
  14   4.0743536   1.5074536   4.2992420
  14  -2.7852678  -2.7794271  -0.3399926
  14  -2.7852668   2.6669862  -0.3399925
  14   2.6611455  -2.7794261  -0.3399923
  14   2.6611465   2.6669872  -0.3399922
  14  -1.2775616  -1.2842745  -3.7804672
  14  -1.2775613  -1.2842744   1.6659460
  14  -1.2775606   4.1621389  -3.7804672
  14  -1.2775603   4.1621390   1.6659461
  14   4.1688518  -1.2842735  -3.7804669
  14   4.1688521  -1.2842734   1.6659464
  14   4.1688528   4.1621399  -3.7804668
  14   4.1688531   4.1621400   1.6659464
ATOMS    8
  32  -0.0079064  -0.0071583  -0.0329827
  14  -4.0820645  -4.0887401  -3.8569067
  14  -4.0820641  -4.0887400   1.5895066
  14  -4.0820635   1.3576733  -3.8569066
  14  -4.0820631   1.3576733   1.5895066
  14   1.3643489  -4.0887391  -3.8569064
  14   1.3643492  -4.0887390   1.5895069
  14   1.3643499   1.3576743  -3.8569063
  14   1.3643502   1.3576743   1.5895070
  14  -0.0815300  -2.7794118  -2.9819665
  14  -0.0815297  -2.7794117   2.4644468
  14  -0.0815290   2.6670016  -2.9819664
  14  -0.0815287   2.6670017   2.4644469
  14  -3.9350084  -1.3760136  -1.1444858
  14  -3.9350080  -1.3760135   4.3019274
  14  -3.9350073   4.0703998  -1.1444857
  14  -3.9350070   4.0703999   4.3019275
  14   1.5114050  -1.3760126  -1.1444855
  14   1.5114053  -1.3760125   4.3019278
  14   1.5114060   4.0704008  -1.1444854
  14   1.5114063   4.0704009   4.3019278
  14  -2.7852599  -0.0738920  -2.9818920
  14  -2.7852596  -0.0738919   2.4645213
  14   2.6611535  -0.0738910  -2.9818917
  14   2.6611538  -0.0738909   2.4645216
  14  -1.3720610  -3.9389609  -1.1471717
  14  -1.3720607  -3.9389608   4.2992416
  14  -1.3720600   1.5074525  -1.1471716
  14  -1.3720597   1.5074526   4.2992417
  14   4.0743523  -3.9389599  -1.1471714
  14   4.0743526  -3.9389598   4.2992419
  14   4.0743533   1.5074535  -1.1471713
  14   4.0743536   1.5074536   4.2992420
  14  -2.7852678  -2.7794271  -0.3399926
  14  -2.7852668   2.6669862  -0.3399925
  14   2.6611455  -2.7794261  -0.3399923
  14   2.6611465   2.6669872  -0.3399922
  14  -1.2775616  -1.2842745  -3.7804672
  14  -1.2775613  -1.2842744   1.6659460
  14  -1.2775606   4.1621389  -3.7804672
  14  -1.2775603   4.1621390   1.6659461
  14   4.1688518  -1.2842735  -3.7804669
  14   4.1688521  -1.2842734   1.6659464
  14   4.1688528   4.1621399  -3.7804668
  14   4.1688531   4.1621400   1.6659464
ATOMS    9
  32  -0.0075609  -0.0068455  -0.0315412
  14  -4.0813228  -4.0877067  -3.8660055
  14  -4.0813225  -4.0877066   1.5804078
  14  -4.0813218   1.3587067  -3.8660054
  14  -4.0813215   1.3587068   1.5804079
  14   1.3650906  -4.0877057  -3.8660052
  14   1.3650909  -4.0877056   1.5804081
  14   1.3650916   1.3587077  -3.8660051
  14   1.3650919   1.3587078   1.5804082
  14  -0.0779668  -2.7769553  -2.9706574
  14  -0.0779665  -2.7769553   2.4757559
  14  -0.0779658   2.6694581  -2.9706573
  14  -0.0779655   2.6694581   2.4757560
  14  -3.9406939  -1.3762454  -1.1548364
  14  -3.9406935  -1.3762453   4.2915768
  14  -3.9406928   4.0701680  -1.1548364
  14  -3.9406925   4.0701681   4.2915769
  14   1.5057195  -1.3762444  -1.1548361
  14   1.5057198  -1.3762443   4.2915771
  14   1.5057205   4.0701690  -1.1548361
  14   1.5057208   4.0701691   4.2915772
  14  -2.7825479  -0.0706626  -2.9705862
  14  -2.7825476  -0.0706625   2.4758271
  14   2.6638655  -0.0706616  -2.9705859
  14   2.6638658  -0.0706615   2.4758274
  14  -1.3724656  -3.9444736  -1.1574049
  14  -1.3724653  -3.9444736   4.2890083
  14  -1.3724646   1.5019398  -1.1574049
  14  -1.3724643   1.5019398   4.2890084
  14   4.0739478  -3.9444726  -1.1574046
  14   4.0739481  -3.9444726   4.2890086
  14   4.0739488   1.5019408  -1.1574045
  14   4.0739491   1.5019408   4.2890087
  14  -2.7825555  -2.7769701  -0.3251333
  14  -2.7825545   2.6694433  -0.3251333
  14   2.6638579  -2.7769691  -0.3251330
  14   2.6638589   2.6694443  -0.3251329
  14  -1.2820963  -1.2885158  -3.7919817
  14  -1.2820960  -1.2885157   1.6544316
  14  -1.2820953   4.1578976  -3.7919816
  14  -1.2820950   4.1578976   1.6544317
  14   4.1643171  -1.2885148  -3.7919814
  14   4.1643174  -1.2885147   1.6544319
  14   4.1643181   4.1578986  -3.7919813
  14   4.1643184   4.1578986   1.6544320
ATOMS   10
  32  -0.0068850  -0.0062334  -0.0287213
  14  -4.0798719  -4.0856850  -3.8838053
  14  -4.0798716  -4.0856849   1.5626079
  14  -4.0798709   1.3607284  -3.8838053
  14  -4.0798706   1.3607285   1.5626080
  14   1.3665415  -4.0856840  -3.8838050
  14   1.3665418  -4.0856839   1.5626082
  14   1.3665425   1.3607294  -3.8838050
  14   1.3665428   1.3607295   1.5626083
  14  -0.0709961  -2.7721498  -2.9485335
  14  -0.0709958  -2.7721497   2.4978798
  14  -0.0709951   2.6742636  -2.9485334
  14  -0.0709948   2.6742636   2.4978798
  14  -3.9518164  -1.3766989  -1.1750853
  14  -3.9518161  -1.3766988   4.2713280
  14  -3.9518154   4.0697145  -1.1750852
  14  -3.9518151   4.0697146   4.2713280
  14   1.4945970  -1.3766978  -1.1750850
  14   1.4945973  -1.3766978   4.2713283
  14   1.4945980   4.0697155  -1.1750849
  14   1.4945983   4.0697156   4.2713283
  14  -2.7772424  -0.0643449  -2.9484687
  14  -2.7772421  -0.0643449   2.4979446
  14   2.6691710  -0.0643439  -2.9484684
  14   2.6691713  -0.0643439   2.4979449
  14  -1.3732571  -3.9552582  -1.1774242
  14  -1.3732568  -3.9552581   4.2689891
  14  -1.3732561   1.4911552  -1.1774241
  14  -1.3732558   1.4911553   4.2689891
  14   4.0731563  -3.9552571  -1.1774239
  14   4.0731566  -3.9552571   4.2689894
  14   4.0731573   1.4911562  -1.1774238
  14   4.0731576   1.4911563   4.2689895
  14  -2.7772493  -2.7721633  -0.2960643
  14  -2.7772483   2.6742501  -0.2960642
  14   2.6691640  -2.7721623  -0.2960640
  14   2.6691650   2.6742511  -0.2960639
  14  -1.2909675  -1.2968131  -3.8145073
  14  -1.2909672  -1.2968130   1.6319059
  14  -1.2909665   4.1496003  -3.8145073
  14  -1.2909662   4.1496004   1.6319060
  14   4.1554459  -1.2968121  -3.8145070
  14   4.1554462  -1.2968120   1.6319062
  14   4.1554469   4.1496013  -3.8145070
  14   4.1554472   4.1496014   1.6319063
ATOMS   11
  32  -0.0059082  -0.0053489  -0.0246461
  14  -4.0777752  -4.0827634  -3.9095284
  14  -4.0777748  -4.0827633   1.5368849
  14  -4.0777742   1.3636500  -3.9095283
  14  -4.0777738   1.3636501   1.5368850
  14   1.3686382  -4.0827624  -3.9095281
  14   1.3686385  -4.0827623   1.5368852
  14   1.3686392   1.3636510  -3.9095280
  14   1.3686395   1.3636511   1.5368853
  14  -0.0609226  -2.7652052  -2.9165617
  14  -0.0609222  -2.7652052   2.5298515
  14  -0.0609216   2.6812081  -2.9165617
  14  -0.0609212   2.6812082   2.5298516
  14  -3.9678898  -1.3773541  -1.2043474
  14  -3.9678895  -1.3773541   4.2420658
  14  -3.9678888   4.0690593  -1.2043474
  14  -3.9678885   4.0690593   4.2420659
  14   1.4785236  -1.3773531  -1.2043471
  14   1.4785239  -1.3773531   4.2420661
  14   1.4785246   4.0690603  -1.2043471
  14   1.4785249   4.0690603   4.2420662
  14  -2.7695752  -0.0552152  -2.9165061
  14  -2.7695749  -0.0552151   2.5299071
  14   2.6768381  -0.0552142  -2.9165058
  14   2.6768385  -0.0552141   2.5299074
  14  -1.3744008  -3.9708431  -1.2063545
  14  -1.3744005  -3.9708430   4.2400587
  14  -1.3743998   1.4755703  -1.2063545
  14  -1.3743995   1.4755703   4.2400588
  14   4.0720125  -3.9708421  -1.2063542
  14   4.0720128  -3.9708420   4.2400590
  14   4.0720135   1.4755713  -1.2063542
  14   4.0720139   1.4755713   4.2400591
  14  -2.7695813  -2.7652168  -0.2540558
  14  -2.7695803   2.6811965  -0.2540557
  14   2.6768321  -2.7652158  -0.2540555
  14   2.6768331   2.6811975  -0.2540554
  14  -1.3037876  -1.3088036  -3.8470597
  14  -1.3037873  -1.3088036   1.5993535
  14  -1.3037866   4.1376098  -3.8470597
  14  -1.3037862   4.1376098   1.5993536
  14   4.1426258  -1.3088026  -3.8470594
  14   4.1426261  -1.3088026   1.5993538
  14   4.1426268   4.1376108  -3.8470594
  14   4.1426271   4.1376108   1.5993539
ATOMS   12
  32  -0.0046732  -0.0042306  -0.0194938
  14  -4.0751242  -4.0790696  -3.9420503
  14  -4.0751239  -4.0790695   1.5043629
  14  -4.0751232   1.3673438  -3.9420503
  14  -4.0751229   1.3673439   1.5043630
  14   1.3712892  -4.0790686  -3.9420500
  14   1.3712895  -4.0790685   1.5043632
  14   1.3712902   1.3673448  -3.9420500
  14   1.3712905   1.3673449   1.5043633
  14  -0.0481864  -2.7564251  -2.8761394
  14  -0.0481861  -2.7564251   2.5702739
  14  -0.0481854   2.6899883  -2.8761393
  14  -0.0481851   2.6899883   2.5702739
  14  -3.9882117  -1.3781826  -1.2413440
  14  -3.9882114  -1.3781825   4.2050693
  14  -3.9882107   4.0682308  -1.2413439
  14  -3.9882104   4.0682308   4.2050694
  14   1.4582017  -1.3781816  -1.2413436
  14   1.4582020  -1.3781815   4.2050696
  14   1.4582027   4.0682318  -1.2413436
  14   1.4582030   4.0682318   4.2050697
  14  -2.7598816  -0.0436722  -2.8760955
  14  -2.7598813  -0.0436722   2.5703178
  14   2.6865318  -0.0436712  -2.8760951
  14   2.6865321  -0.0436712   2.5703181
  14  -1.3758469  -3.9905474  -1.2429316
  14  -1.3758466  -3.9905473   4.2034817
  14  -1.3758459   1.4558660  -1.2429315
  14  -1.3758456   1.4558661   4.2034818
  14   4.0705665  -3.9905464  -1.2429313
  14   4.0705668  -3.9905463   4.2034820
  14   4.0705675   1.4558670  -1.2429312
  14   4.0705678   1.4558671   4.2034821
  14  -2.7598864  -2.7564344  -0.2009440
  14  -2.7598854   2.6899790  -0.2009439
  14   2.6865269  -2.7564334  -0.2009437
  14   2.6865279   2.6899800  -0.2009436
  14  -1.3199961  -1.3239635  -3.8882162
  14  -1.3199958  -1.3239634   1.5581971
  14  -1.3199951   4.1224499  -3.8882161
  14  -1.3199948   4.1224500   1.5581972
  14   4.1264173  -1.3239625  -3.8882159
  14   4.1264176  -1.3239624   1.5581974
  14   4.1264183   4.1224509  -3.8882158
  14   4.1264186   4.1224510   1.5581975
ATOMS   13
  32  -0.0032340  -0.0029274  -0.0134895
  14  -4.0720350  -4.0747650  -3.9799499
  14  -4.0720346  -4.0747649   1.4664634
  14  -4.0720340   1.3716484  -3.9799498
  14  -4.0720336   1.3716485   1.4664634
  14   1.3743784  -4.0747640  -3.9799496
  14   1.3743787  -4.0747639   1.4664637
  14   1.3743794   1.3716494  -3.9799495
  14   1.3743797   1.3716495   1.4664638
  14  -0.0333444  -2.7461932  -2.8290332
  14  -0.0333441  -2.7461931   2.6173801
  14  -0.0333434   2.7002202  -2.8290331
  14  -0.0333431   2.7002203   2.6173802
  14  -4.0118938  -1.3791481  -1.2844579
  14  -4.0118935  -1.3791480   4.1619553
  14  -4.0118928   4.0672653  -1.2844578
  14  -4.0118925   4.0672654   4.1619554
  14   1.4345196  -1.3791471  -1.2844576
  14   1.4345199  -1.3791470   4.1619557
  14   1.4345206   4.0672663  -1.2844575
  14   1.4345209   4.0672664   4.1619557
  14  -2.7485850  -0.0302207  -2.8290028
  14  -2.7485847  -0.0302206   2.6174105
  14   2.6978284  -0.0302197  -2.8290025
  14   2.6978287  -0.0302196   2.6174108
  14  -1.3775321  -4.0135098  -1.2855567
  14  -1.3775318  -4.0135098   4.1608566
  14  -1.3775311   1.4329036  -1.2855566
  14  -1.3775308   1.4329036   4.1608567
  14   4.0688813  -4.0135088  -1.2855564
  14   4.0688816  -4.0135088   4.1608569
  14   4.0688823   1.4329046  -1.2855563
  14   4.0688826   1.4329046   4.1608570
  14  -2.7485885  -2.7461997  -0.1390500
  14  -2.7485875   2.7002136  -0.1390499
  14   2.6978248  -2.7461987  -0.1390497
  14   2.6978258   2.7002146  -0.1390496
  14  -1.3388848  -1.3416300  -3.9361779
  14  -1.3388845  -1.3416299   1.5102353
  14  -1.3388838   4.1047834  -3.9361779
  14  -1.3388835   4.1047835   1.5102354
  14   4.1075286  -1.3416290  -3.9361776
  14   4.1075289  -1.3416289   1.5102357
  14   4.1075296   4.1047844  -3.9361775
  14   4.1075299   4.1047845   1.5102357
ATOMS   14
  32  -0.0016535  -0.0014962  -0.0068957
  14  -4.0686424  -4.0700377  -4.0215706
  14  -4.0686421  -4.0700376   1.4248426
  14  -4.0686414   1.3763757  -4.0215706
  14  -4.0686411   1.3763758   1.4248427
  14   1.3777710  -4.0700367  -4.0215703
  14   1.3777713  -4.0700366   1.4248429
  14   1.3777720   1.3763767  -4.0215703
  14   1.3777723   1.3763768   1.4248430
  14  -0.0170450  -2.7349566  -2.7773018
  14  -0.0170447  -2.7349566   2.6691115
  14  -0.0170440   2.7114567  -2.7773017
  14  -0.0170437   2.7114568   2.6691116
  14  -4.0379012  -1.3802084  -1.3318051
  14  -4.0379009  -1.3802083   4.1146082
  14  -4.0379002   4.0662050  -1.3318050
  14  -4.0378999   4.0662051   4.1146083
  14   1.4085122  -1.3802074  -1.3318047
  14   1.4085125  -1.3802073   4.1146085
  14   1.4085132   4.0662060  -1.3318047
  14   1.4085135   4.0662061   4.1146086
  14  -2.7361793  -0.0154484  -2.7772863
  14  -2.7361790  -0.0154483   2.6691270
  14   2.7102340  -0.0154474  -2.7772860
  14   2.7102344  -0.0154473   2.6691273
  14  -1.3793827  -4.0387268  -1.3323670
  14  -1.3793824  -4.0387268   4.1140463
  14  -1.3793817   1.4076866  -1.3323669
  14  -1.3793814   1.4076866   4.1140464
  14   4.0670307  -4.0387258  -1.3323667
  14   4.0670310  -4.0387258   4.1140466
  14   4.0670317   1.4076876  -1.3323666
  14   4.0670320   1.4076876   4.1140467
  14  -2.7361814  -2.7349602  -0.0710789
  14  -2.7361804   2.7114532  -0.0710788
  14   2.7102320  -2.7349592  -0.0710786
  14   2.7102330   2.7114542  -0.0710785
  14  -1.3596280  -1.3610311  -3.9888488
  14  -1.3596277  -1.3610311   1.4575645
  14  -1.3596270   4.0853822  -3.9888487
  14  -1.3596267   4.0853823   1.4575645
  14   4.0867853  -1.3610301  -3.9888485
  14   4.0867856  -1.3610301   1.4575648
  14   4.0867863   4.0853832  -3.9888484
  14   4.0867866   4.0853833   1.4575648
ATOMS   15
  32  -0.0000007   0.0000004  -0.0000005
  14  -4.0650947  -4.0650944  -4.0650935
  14  -4.0650944  -4.0650943   1.3813197
  14  -4.0650937   1.3813190  -4.0650935
  14  -4.0650934   1.3813191   1.3813198
  14   1.3813187  -4.0650934  -4.0650932
  14   1.3813190  -4.0650933   1.3813200
  14   1.3813197   1.3813200  -4.0650932
  14   1.3813200   1.3813201   1.3813201
  14  -0.0000008  -2.7232066  -2.7232061
  14  -0.0000005  -2.7232065   2.7232072
  14   0.0000002   2.7232068  -2.7232060
  14   0.0000005   2.7232069   2.7232072
  14  -4.0650971  -1.3813171  -1.3813161
  14  -4.0650968  -1.3813170   4.0650972
  14  -4.0650961   4.0650963  -1.3813160
  14  -4.0650958   4.0650964   4.0650973
  14   1.3813162  -1.3813161  -1.3813157
  14   1.3813165  -1.3813160   4.0650975
  14   1.3813172   4.0650973  -1.3813157
  14   1.3813175   4.0650974   4.0650976
  14  -2.7232067  -0.0000010  -2.7232062
  14  -2.7232064  -0.0000009   2.7232070
  14   2.7232067   0.0000000  -2.7232059
  14   2.7232070   0.0000001   2.7232073
  14  -1.3813179  -4.0650963  -1.3813166
  14  -1.3813176  -4.0650962   4.0650967
  14  -1.3813169   1.3813171  -1.3813165
  14  -1.3813166   1.3813171   4.0650968
  14   4.0650954  -4.0650953  -1.3813163
  14   4.0650957  -4.0650952   4.0650970
  14   4.0650964   1.3813181  -1.3813162
  14   4.0650968   1.3813181   4.0650971
  14  -2.7232071  -2.7232070  -0.0000013
  14  -2.7232061   2.7232064  -0.0000013
  14   2.7232063  -2.7232060  -0.0000010
  14   2.7232073   2.7232074  -0.0000010
  14  -1.3813193  -1.3813190  -4.0439269
  14  -1.3813190  -1.3813189   1.4024864
  14  -1.3813183   4.0650944  -4.0439268
  14  -1.3813180   4.0650945   1.4024865
  14   4.0650940  -1.3813180  -4.0439266
  14   4.0650944  -1.3813179   1.4024867
  14   4.0650951   4.0650954  -4.0439265
  14   4.0650954   4.0650955   1.4024868
ATOMS   16
  32   0.0016520   0.0014970   0.0068946
  14  -4.0615471  -4.0601511  -4.1086164
  14  -4.0615468  -4.0601510   1.3377968
  14  -4.0615461   1.3862623  -4.1086164
  14  -4.0615458   1.3862624   1.3377969
  14   1.3848663  -4.0601501  -4.1086161
  14   1.3848666  -4.0601500   1.3377971
  14   1.3848673   1.3862633  -4.1086160
  14   1.3848676   1.3862634   1.3377972
  14   0.0170435  -2.7114565  -2.6691105
  14   0.0170438  -2.7114564   2.7773028
  14   0.0170445   2.7349569  -2.6691104
  14   0.0170448   2.7349570   2.7773029
  14  -4.0922931  -1.3824259  -1.4308271
  14  -4.0922928  -1.3824258   4.0155862
  14  -4.0922921   4.0639875  -1.4308270
  14  -4.0922918   4.0639876   4.0155863
  14   1.3541203  -1.3824248  -1.4308268
  14   1.3541206  -1.3824248   4.0155865
  14   1.3541213   4.0639885  -1.4308267
  14   1.3541216   4.0639886   4.0155866
  14  -2.7102340   0.0154465  -2.6691262
  14  -2.7102337   0.0154466   2.7772871
  14   2.7361794   0.0154475  -2.6691259
  14   2.7361797   0.0154476   2.7772874
  14  -1.3832532  -4.0914658  -1.4302662
  14  -1.3832528  -4.0914657   4.0161471
  14  -1.3832522   1.3549476  -1.4302661
  14  -1.3832518   1.3549477   4.0161471
  14   4.0631602  -4.0914648  -1.4302659
  14   4.0631605  -4.0914647   4.0161474
  14   4.0631612   1.3549486  -1.4302658
  14   4.0631615   1.3549487   4.0161475
  14  -2.7102329  -2.7114538   0.0710762
  14  -2.7102319   2.7349596   0.0710763
  14   2.7361805  -2.7114528   0.0710765
  14   2.7361815   2.7349606   0.0710766
  14  -1.4030106  -1.4016068  -4.0990049
  14  -1.4030103  -1.4016067   1.3474083
  14  -1.4030096   4.0448066  -4.0990049
  14  -1.4030093   4.0448067   1.3474084
  14   4.0434028  -1.4016058  -4.0990046
  14   4.0434031  -1.4016057   1.3474086
  14   4.0434038   4.0448076  -4.0990046
  14   4.0434041   4.0448077   1.3474087
ATOMS   17
  32   0.0032325   0.0029282   0.0134884
  14  -4.0581545  -4.0554238  -4.1502372
  14  -4.0581542  -4.0554238   1.2961761
  14  -4.0581535   1.3909896  -4.1502371
  14  -4.0581532   1.3909896   1.2961762