# --- AXSF block for ---- iev =     7  freq =     133.038282 cm-1
ANIMSTEPS   30
ATOMS    1
  32  -0.0000418  -0.0000064   0.0000133
  14  -4.0313719  -4.0962895  -4.0676388
  14  -4.0313716  -4.0962894   1.3787745
  14  -4.0313709   1.3501239  -4.0676387
  14  -4.0313706   1.3501240   1.3787745
  14   1.4150415  -4.0962885  -4.0676385
  14   1.4150418  -4.0962884   1.3787748
  14   1.4150425   1.3501249  -4.0676384
  14   1.4150428   1.3501250   1.3787748
  14   0.0000470  -2.7185996  -2.7957803
  14   0.0000473  -2.7185995   2.6506330
  14   0.0000480   2.7278138  -2.7957802
  14   0.0000483   2.7278138   2.6506330
  14  -4.0987907  -1.4220826  -1.3742135
  14  -4.0987904  -1.4220825   4.0721998
  14  -4.0987897   4.0243308  -1.3742134
  14  -4.0987894   4.0243309   4.0721998
  14   1.3476226  -1.4220816  -1.3742132
  14   1.3476229  -1.4220815   4.0722001
  14   1.3476236   4.0243318  -1.3742131
  14   1.3476239   4.0243319   4.0722001
  14  -2.7328808   0.0000074  -2.6506466
  14  -2.7328805   0.0000074   2.7957666
  14   2.7135326   0.0000084  -2.6506463
  14   2.7135329   0.0000084   2.7957669
  14  -1.3430364  -4.0339013  -1.3884264
  14  -1.3430361  -4.0339012   4.0579868
  14  -1.3430354   1.4125121  -1.3884264
  14  -1.3430351   1.4125122   4.0579869
  14   4.1033770  -4.0339002  -1.3884261
  14   4.1033773  -4.0339002   4.0579871
  14   4.1033780   1.4125131  -1.3884260
  14   4.1033783   1.4125132   4.0579872
  14  -2.7135125  -2.7278125  -0.0000188
  14  -2.7135115   2.7186009  -0.0000187
  14   2.7329008  -2.7278115  -0.0000185
  14   2.7329018   2.7186019  -0.0000184
  14  -1.4196009  -1.3405389  -4.0413889
  14  -1.4196006  -1.3405388   1.4050244
  14  -1.4195999   4.1058745  -4.0413888
  14  -1.4195996   4.1058746   1.4050244
  14   4.0268125  -1.3405379  -4.0413886
  14   4.0268128  -1.3405378   1.4050247
  14   4.0268135   4.1058755  -4.0413885
  14   4.0268138   4.1058756   1.4050247
ATOMS    2
  32  -0.0000810  -0.0000129   0.0000265
  14  -3.9991229  -4.1261212  -4.0700729
  14  -3.9991226  -4.1261211   1.3763404
  14  -3.9991219   1.3202922  -4.0700728
  14  -3.9991216   1.3202923   1.3763405
  14   1.4472904  -4.1261202  -4.0700725
  14   1.4472908  -4.1261201   1.3763407
  14   1.4472914   1.3202932  -4.0700725
  14   1.4472918   1.3202933   1.3763408
  14   0.0000926  -2.7141940  -2.8651827
  14   0.0000929  -2.7141940   2.5812306
  14   0.0000936   2.7322194  -2.8651826
  14   0.0000939   2.7322194   2.5812307
  14  -4.1310118  -1.4610664  -1.3674214
  14  -4.1310115  -1.4610663   4.0789919
  14  -4.1310108   3.9853470  -1.3674213
  14  -4.1310105   3.9853471   4.0789920
  14   1.3154016  -1.4610654  -1.3674211
  14   1.3154019  -1.4610653   4.0789922
  14   1.3154026   3.9853480  -1.3674210
  14   1.3154029   3.9853481   4.0789923
  14  -2.7421321   0.0000153  -2.5812583
  14  -2.7421318   0.0000154   2.8651550
  14   2.7042813   0.0000163  -2.5812580
  14   2.7042816   0.0000164   2.8651553
  14  -1.3064279  -4.0040696  -1.3952255
  14  -1.3064276  -4.0040695   4.0511877
  14  -1.3064269   1.4423438  -1.3952255
  14  -1.3064266   1.4423439   4.0511878
  14   4.1399854  -4.0040686  -1.3952252
  14   4.1399857  -4.0040685   4.0511880
  14   4.1399864   1.4423448  -1.3952252
  14   4.1399867   1.4423449   4.0511881
  14  -2.7042417  -2.7322167  -0.0000355
  14  -2.7042407   2.7141967  -0.0000354
  14   2.7421717  -2.7322157  -0.0000352
  14   2.7421727   2.7141977  -0.0000351
  14  -1.4562093  -1.3015411  -4.0389618
  14  -1.4562090  -1.3015410   1.4074514
  14  -1.4562083   4.1448723  -4.0389618
  14  -1.4562080   4.1448724   1.4074515
  14   3.9902041  -1.3015401  -4.0389615
  14   3.9902044  -1.3015400   1.4074517
  14   3.9902051   4.1448733  -4.0389615
  14   3.9902054   4.1448734   1.4074518
ATOMS    3
  32  -0.0001168  -0.0000189   0.0000385
  14  -3.9697572  -4.1532857  -4.0722893
  14  -3.9697569  -4.1532856   1.3741240
  14  -3.9697562   1.2931277  -4.0722892
  14  -3.9697559   1.2931278   1.3741241
  14   1.4766561  -4.1532847  -4.0722890
  14   1.4766564  -4.1532846   1.3741243
  14   1.4766571   1.2931287  -4.0722889
  14   1.4766574   1.2931288   1.3741244
  14   0.0001342  -2.7101823  -2.9283800
  14   0.0001345  -2.7101823   2.5180333
  14   0.0001352   2.7362311  -2.9283799
  14   0.0001355   2.7362311   2.5180334
  14  -4.1603520  -1.4965648  -1.3612365
  14  -4.1603517  -1.4965647   4.0851767
  14  -4.1603510   3.9498486  -1.3612365
  14  -4.1603507   3.9498487   4.0851768
  14   1.2860614  -1.4965638  -1.3612362
  14   1.2860617  -1.4965637   4.0851770
  14   1.2860624   3.9498496  -1.3612361
  14   1.2860627   3.9498497   4.0851771
  14  -2.7505563   0.0000226  -2.5180737
  14  -2.7505560   0.0000226   2.9283396
  14   2.6958571   0.0000236  -2.5180734
  14   2.6958574   0.0000236   2.9283399
  14  -1.2730925  -3.9769050  -1.4014168
  14  -1.2730922  -3.9769049   4.0449965
  14  -1.2730915   1.4695084  -1.4014167
  14  -1.2730912   1.4695084   4.0449966
  14   4.1733208  -3.9769040  -1.4014165
  14   4.1733211  -3.9769039   4.0449968
  14   4.1733218   1.4695094  -1.4014164
  14   4.1733221   1.4695094   4.0449969
  14  -2.6957997  -2.7362271  -0.0000507
  14  -2.6957987   2.7101863  -0.0000506
  14   2.7506137  -2.7362261  -0.0000504
  14   2.7506147   2.7101873  -0.0000503
  14  -1.4895447  -1.2660300  -4.0367518
  14  -1.4895444  -1.2660299   1.4096615
  14  -1.4895437   4.1803834  -4.0367517
  14  -1.4895434   4.1803835   1.4096616
  14   3.9568687  -1.2660290  -4.0367515
  14   3.9568690  -1.2660289   1.4096618
  14   3.9568697   4.1803844  -4.0367514
  14   3.9568700   4.1803845   1.4096619
ATOMS    4
  32  -0.0001474  -0.0000240   0.0000488
  14  -3.9445583  -4.1765959  -4.0741912
  14  -3.9445580  -4.1765958   1.3722221
  14  -3.9445573   1.2698175  -4.0741911
  14  -3.9445570   1.2698176   1.3722221
  14   1.5018551  -4.1765949  -4.0741909
  14   1.5018554  -4.1765948   1.3722224
  14   1.5018561   1.2698185  -4.0741908
  14   1.5018564   1.2698186   1.3722224
  14   0.0001699  -2.7067398  -2.9826102
  14   0.0001702  -2.7067398   2.4638031
  14   0.0001709   2.7396735  -2.9826101
  14   0.0001712   2.7396736   2.4638031
  14  -4.1855292  -1.5270263  -1.3559292
  14  -4.1855289  -1.5270262   4.0904840
  14  -4.1855282   3.9193871  -1.3559292
  14  -4.1855279   3.9193872   4.0904841
  14   1.2608842  -1.5270253  -1.3559289
  14   1.2608845  -1.5270252   4.0904843
  14   1.2608852   3.9193881  -1.3559289
  14   1.2608855   3.9193882   4.0904844
  14  -2.7577852   0.0000288  -2.4638544
  14  -2.7577849   0.0000288   2.9825589
  14   2.6886282   0.0000298  -2.4638541
  14   2.6886285   0.0000298   2.9825592
  14  -1.2444871  -3.9535949  -1.4067295
  14  -1.2444868  -3.9535948   4.0396837
  14  -1.2444861   1.4928185  -1.4067294
  14  -1.2444858   1.4928186   4.0396838
  14   4.2019263  -3.9535939  -1.4067292
  14   4.2019266  -3.9535938   4.0396841
  14   4.2019273   1.4928195  -1.4067291
  14   4.2019276   1.4928196   4.0396841
  14  -2.6885555  -2.7396685  -0.0000637
  14  -2.6885545   2.7067449  -0.0000636
  14   2.7578579  -2.7396675  -0.0000634
  14   2.7578589   2.7067459  -0.0000633
  14  -1.5181501  -1.2355576  -4.0348553
  14  -1.5181498  -1.2355575   1.4115580
  14  -1.5181491   4.2108558  -4.0348552
  14  -1.5181488   4.2108559   1.4115580
  14   3.9282632  -1.2355566  -4.0348550
  14   3.9282635  -1.2355565   1.4115583
  14   3.9282642   4.2108568  -4.0348549
  14   3.9282645   4.2108569   1.4115583
ATOMS    5
  32  -0.0001717  -0.0000280   0.0000569
  14  -3.9246273  -4.1950329  -4.0756955
  14  -3.9246270  -4.1950328   1.3707177
  14  -3.9246263   1.2513805  -4.0756955
  14  -3.9246260   1.2513806   1.3707178
  14   1.5217861  -4.1950319  -4.0756952
  14   1.5217864  -4.1950318   1.3707180
  14   1.5217871   1.2513815  -4.0756952
  14   1.5217874   1.2513816   1.3707181
  14   0.0001981  -2.7040170  -3.0255032
  14   0.0001984  -2.7040170   2.4209101
  14   0.0001991   2.7423963  -3.0255031
  14   0.0001994   2.7423964   2.4209101
  14  -4.2054429  -1.5511196  -1.3517315
  14  -4.2054425  -1.5511195   4.0946818
  14  -4.2054418   3.8952938  -1.3517314
  14  -4.2054415   3.8952939   4.0946819
  14   1.2409705  -1.5511186  -1.3517312
  14   1.2409708  -1.5511185   4.0946821
  14   1.2409715   3.8952948  -1.3517311
  14   1.2409718   3.8952949   4.0946822
  14  -2.7635028   0.0000337  -2.4209700
  14  -2.7635025   0.0000338   3.0254433
  14   2.6829106   0.0000347  -2.4209697
  14   2.6829109   0.0000348   3.0254436
  14  -1.2218618  -3.9351579  -1.4109316
  14  -1.2218615  -3.9351578   4.0354817
  14  -1.2218608   1.5112555  -1.4109315
  14  -1.2218605   1.5112556   4.0354817
  14   4.2245515  -3.9351569  -1.4109313
  14   4.2245518  -3.9351568   4.0354820
  14   4.2245525   1.5112565  -1.4109312
  14   4.2245528   1.5112566   4.0354821
  14  -2.6828258  -2.7423904  -0.0000740
  14  -2.6828248   2.7040230  -0.0000739
  14   2.7635876  -2.7423894  -0.0000737
  14   2.7635886   2.7040240  -0.0000736
  14  -1.5407754  -1.2114556  -4.0333553
  14  -1.5407751  -1.2114555   1.4130580
  14  -1.5407744   4.2349578  -4.0333552
  14  -1.5407741   4.2349578   1.4130580
  14   3.9056380  -1.2114546  -4.0333550
  14   3.9056383  -1.2114545   1.4130583
  14   3.9056390   4.2349588  -4.0333549
  14   3.9056393   4.2349588   1.4130583
ATOMS    6
  32  -0.0001885  -0.0000308   0.0000625
  14  -3.9108354  -4.2077909  -4.0767365
  14  -3.9108351  -4.2077908   1.3696768
  14  -3.9108344   1.2386225  -4.0767364
  14  -3.9108341   1.2386225   1.3696768
  14   1.5355779  -4.2077899  -4.0767362
  14   1.5355783  -4.2077898   1.3696771
  14   1.5355789   1.2386235  -4.0767361
  14   1.5355793   1.2386235   1.3696772
  14   0.0002176  -2.7021329  -3.0551844
  14   0.0002179  -2.7021328   2.3912289
  14   0.0002186   2.7442805  -3.0551843
  14   0.0002189   2.7442805   2.3912289
  14  -4.2192228  -1.5677917  -1.3488267
  14  -4.2192225  -1.5677917   4.0975866
  14  -4.2192218   3.8786217  -1.3488266
  14  -4.2192215   3.8786217   4.0975866
  14   1.2271906  -1.5677907  -1.3488264
  14   1.2271909  -1.5677907   4.0975869
  14   1.2271916   3.8786227  -1.3488263
  14   1.2271919   3.8786227   4.0975869
  14  -2.7674593   0.0000371  -2.3912948
  14  -2.7674590   0.0000372   3.0551185
  14   2.6789541   0.0000381  -2.3912945
  14   2.6789544   0.0000382   3.0551188
  14  -1.2062056  -3.9223998  -1.4138394
  14  -1.2062053  -3.9223997   4.0325739
  14  -1.2062046   1.5240136  -1.4138393
  14  -1.2062043   1.5240137   4.0325740
  14   4.2402078  -3.9223988  -1.4138391
  14   4.2402081  -3.9223987   4.0325742
  14   4.2402088   1.5240146  -1.4138390
  14   4.2402091   1.5240147   4.0325743
  14  -2.6788609  -2.7442740  -0.0000811
  14  -2.6788599   2.7021394  -0.0000811
  14   2.7675525  -2.7442730  -0.0000808
  14   2.7675535   2.7021404  -0.0000808
  14  -1.5564317  -1.1947775  -4.0323173
  14  -1.5564314  -1.1947774   1.4140959
  14  -1.5564307   4.2516359  -4.0323173
  14  -1.5564304   4.2516360   1.4140960
  14   3.8899817  -1.1947765  -4.0323170
  14   3.8899820  -1.1947764   1.4140962
  14   3.8899827   4.2516369  -4.0323170
  14   3.8899830   4.2516370   1.4140963
ATOMS    7
  32  -0.0001971  -0.0000322   0.0000654
  14  -3.9037854  -4.2143125  -4.0772686
  14  -3.9037851  -4.2143124   1.3691447
  14  -3.9037844   1.2321009  -4.0772685
  14  -3.9037841   1.2321010   1.3691447
  14   1.5426279  -4.2143115  -4.0772683
  14   1.5426282  -4.2143114   1.3691450
  14   1.5426289   1.2321019  -4.0772682
  14   1.5426292   1.2321020   1.3691450
  14   0.0002276  -2.7011698  -3.0703565
  14   0.0002279  -2.7011697   2.3760567
  14   0.0002286   2.7452436  -3.0703565
  14   0.0002289   2.7452437   2.3760568
  14  -4.2262666  -1.5763140  -1.3473419
  14  -4.2262663  -1.5763140   4.0990714
  14  -4.2262656   3.8700994  -1.3473418
  14  -4.2262653   3.8700994   4.0990715
  14   1.2201467  -1.5763130  -1.3473416
  14   1.2201470  -1.5763130   4.0990717
  14   1.2201477   3.8701004  -1.3473415
  14   1.2201480   3.8701004   4.0990718
  14  -2.7694817   0.0000388  -2.3761257
  14  -2.7694814   0.0000389   3.0702876
  14   2.6769316   0.0000398  -2.3761254
  14   2.6769319   0.0000399   3.0702879
  14  -1.1982026  -3.9158783  -1.4153257
  14  -1.1982022  -3.9158782   4.0310875
  14  -1.1982016   1.5305351  -1.4153257
  14  -1.1982012   1.5305352   4.0310876
  14   4.2482108  -3.9158772  -1.4153254
  14   4.2482111  -3.9158772   4.0310878
  14   4.2482118   1.5305361  -1.4153253
  14   4.2482121   1.5305362   4.0310879
  14  -2.6768342  -2.7452368  -0.0000848
  14  -2.6768332   2.7011766  -0.0000847
  14   2.7695792  -2.7452358  -0.0000845
  14   2.7695802   2.7011776  -0.0000844
  14  -1.5644347  -1.1862521  -4.0317867
  14  -1.5644344  -1.1862521   1.4146265
  14  -1.5644337   4.2601612  -4.0317867
  14  -1.5644334   4.2601613   1.4146266
  14   3.8819787  -1.1862511  -4.0317864
  14   3.8819790  -1.1862511   1.4146268
  14   3.8819797   4.2601622  -4.0317864
  14   3.8819800   4.2601623   1.4146269
ATOMS    8
  32  -0.0001971  -0.0000322   0.0000654
  14  -3.9037854  -4.2143125  -4.0772686
  14  -3.9037851  -4.2143124   1.3691447
  14  -3.9037844   1.2321009  -4.0772685
  14  -3.9037841   1.2321010   1.3691447
  14   1.5426279  -4.2143115  -4.0772683
  14   1.5426282  -4.2143114   1.3691450
  14   1.5426289   1.2321019  -4.0772682
  14   1.5426292   1.2321020   1.3691450
  14   0.0002276  -2.7011698  -3.0703565
  14   0.0002279  -2.7011697   2.3760567
  14   0.0002286   2.7452436  -3.0703565
  14   0.0002289   2.7452437   2.3760568
  14  -4.2262666  -1.5763140  -1.3473419
  14  -4.2262663  -1.5763140   4.0990714
  14  -4.2262656   3.8700994  -1.3473418
  14  -4.2262653   3.8700994   4.0990715
  14   1.2201467  -1.5763130  -1.3473416
  14   1.2201470  -1.5763130   4.0990717
  14   1.2201477   3.8701004  -1.3473415
  14   1.2201480   3.8701004   4.0990718
  14  -2.7694817   0.0000388  -2.3761257
  14  -2.7694814   0.0000389   3.0702876
  14   2.6769316   0.0000398  -2.3761254
  14   2.6769319   0.0000399   3.0702879
  14  -1.1982026  -3.9158783  -1.4153257
  14  -1.1982022  -3.9158782   4.0310875
  14  -1.1982016   1.5305351  -1.4153257
  14  -1.1982012   1.5305352   4.0310876
  14   4.2482108  -3.9158772  -1.4153254
  14   4.2482111  -3.9158772   4.0310878
  14   4.2482118   1.5305361  -1.4153253
  14   4.2482121   1.5305362   4.0310879
  14  -2.6768342  -2.7452368  -0.0000848
  14  -2.6768332   2.7011766  -0.0000847
  14   2.7695792  -2.7452358  -0.0000845
  14   2.7695802   2.7011776  -0.0000844
  14  -1.5644347  -1.1862521  -4.0317867
  14  -1.5644344  -1.1862521   1.4146265
  14  -1.5644337   4.2601612  -4.0317867
  14  -1.5644334   4.2601613   1.4146266
  14   3.8819787  -1.1862511  -4.0317864
  14   3.8819790  -1.1862511   1.4146268
  14   3.8819797   4.2601622  -4.0317864
  14   3.8819800   4.2601623   1.4146269
ATOMS    9
  32  -0.0001885  -0.0000308   0.0000625
  14  -3.9108354  -4.2077909  -4.0767365
  14  -3.9108351  -4.2077908   1.3696768
  14  -3.9108344   1.2386225  -4.0767364
  14  -3.9108341   1.2386225   1.3696768
  14   1.5355779  -4.2077899  -4.0767362
  14   1.5355783  -4.2077898   1.3696771
  14   1.5355789   1.2386235  -4.0767361
  14   1.5355793   1.2386235   1.3696772
  14   0.0002176  -2.7021329  -3.0551844
  14   0.0002179  -2.7021328   2.3912289
  14   0.0002186   2.7442805  -3.0551843
  14   0.0002189   2.7442805   2.3912289
  14  -4.2192228  -1.5677917  -1.3488267
  14  -4.2192225  -1.5677917   4.0975866
  14  -4.2192218   3.8786217  -1.3488266
  14  -4.2192215   3.8786217   4.0975866
  14   1.2271906  -1.5677907  -1.3488264
  14   1.2271909  -1.5677907   4.0975869
  14   1.2271916   3.8786227  -1.3488263
  14   1.2271919   3.8786227   4.0975869
  14  -2.7674593   0.0000371  -2.3912948
  14  -2.7674590   0.0000372   3.0551185
  14   2.6789541   0.0000381  -2.3912945
  14   2.6789544   0.0000382   3.0551188
  14  -1.2062056  -3.9223998  -1.4138394
  14  -1.2062053  -3.9223997   4.0325739
  14  -1.2062046   1.5240136  -1.4138393
  14  -1.2062043   1.5240137   4.0325740
  14   4.2402078  -3.9223988  -1.4138391
  14   4.2402081  -3.9223987   4.0325742
  14   4.2402088   1.5240146  -1.4138390
  14   4.2402091   1.5240147   4.0325743
  14  -2.6788609  -2.7442740  -0.0000811
  14  -2.6788599   2.7021394  -0.0000811
  14   2.7675525  -2.7442730  -0.0000808
  14   2.7675535   2.7021404  -0.0000808
  14  -1.5564317  -1.1947775  -4.0323173
  14  -1.5564314  -1.1947774   1.4140959
  14  -1.5564307   4.2516359  -4.0323173
  14  -1.5564304   4.2516360   1.4140960
  14   3.8899817  -1.1947765  -4.0323170
  14   3.8899820  -1.1947764   1.4140962
  14   3.8899827   4.2516369  -4.0323170
  14   3.8899830   4.2516370   1.4140963
ATOMS   10
  32  -0.0001717  -0.0000280   0.0000569
  14  -3.9246273  -4.1950329  -4.0756955
  14  -3.9246270  -4.1950328   1.3707177
  14  -3.9246263   1.2513805  -4.0756955
  14  -3.9246260   1.2513806   1.3707178
  14   1.5217861  -4.1950319  -4.0756952
  14   1.5217864  -4.1950318   1.3707180
  14   1.5217871   1.2513815  -4.0756952
  14   1.5217874   1.2513816   1.3707181
  14   0.0001981  -2.7040170  -3.0255032
  14   0.0001984  -2.7040170   2.4209101
  14   0.0001991   2.7423963  -3.0255031
  14   0.0001994   2.7423964   2.4209101
  14  -4.2054429  -1.5511196  -1.3517315
  14  -4.2054425  -1.5511195   4.0946818
  14  -4.2054418   3.8952938  -1.3517314
  14  -4.2054415   3.8952939   4.0946819
  14   1.2409705  -1.5511186  -1.3517312
  14   1.2409708  -1.5511185   4.0946821
  14   1.2409715   3.8952948  -1.3517311
  14   1.2409718   3.8952949   4.0946822
  14  -2.7635028   0.0000337  -2.4209700
  14  -2.7635025   0.0000338   3.0254433
  14   2.6829106   0.0000347  -2.4209697
  14   2.6829109   0.0000348   3.0254436
  14  -1.2218618  -3.9351579  -1.4109316
  14  -1.2218615  -3.9351578   4.0354817
  14  -1.2218608   1.5112555  -1.4109315
  14  -1.2218605   1.5112556   4.0354817
  14   4.2245515  -3.9351569  -1.4109313
  14   4.2245518  -3.9351568   4.0354820
  14   4.2245525   1.5112565  -1.4109312
  14   4.2245528   1.5112566   4.0354821
  14  -2.6828258  -2.7423904  -0.0000740
  14  -2.6828248   2.7040230  -0.0000739
  14   2.7635876  -2.7423894  -0.0000737
  14   2.7635886   2.7040240  -0.0000736
  14  -1.5407754  -1.2114556  -4.0333553
  14  -1.5407751  -1.2114555   1.4130580
  14  -1.5407744   4.2349578  -4.0333552
  14  -1.5407741   4.2349578   1.4130580
  14   3.9056380  -1.2114546  -4.0333550
  14   3.9056383  -1.2114545   1.4130583
  14   3.9056390   4.2349588  -4.0333549
  14   3.9056393   4.2349588   1.4130583
ATOMS   11
  32  -0.0001474  -0.0000240   0.0000488
  14  -3.9445583  -4.1765959  -4.0741912
  14  -3.9445580  -4.1765958   1.3722221
  14  -3.9445573   1.2698175  -4.0741911
  14  -3.9445570   1.2698176   1.3722221
  14   1.5018551  -4.1765949  -4.0741909
  14   1.5018554  -4.1765948   1.3722224
  14   1.5018561   1.2698185  -4.0741908
  14   1.5018564   1.2698186   1.3722224
  14   0.0001699  -2.7067398  -2.9826102
  14   0.0001702  -2.7067398   2.4638031
  14   0.0001709   2.7396735  -2.9826101
  14   0.0001712   2.7396736   2.4638031
  14  -4.1855292  -1.5270263  -1.3559292
  14  -4.1855289  -1.5270262   4.0904840
  14  -4.1855282   3.9193871  -1.3559292
  14  -4.1855279   3.9193872   4.0904841
  14   1.2608842  -1.5270253  -1.3559289
  14   1.2608845  -1.5270252   4.0904843
  14   1.2608852   3.9193881  -1.3559289
  14   1.2608855   3.9193882   4.0904844
  14  -2.7577852   0.0000288  -2.4638544
  14  -2.7577849   0.0000288   2.9825589
  14   2.6886282   0.0000298  -2.4638541
  14   2.6886285   0.0000298   2.9825592
  14  -1.2444871  -3.9535949  -1.4067295
  14  -1.2444868  -3.9535948   4.0396837
  14  -1.2444861   1.4928185  -1.4067294
  14  -1.2444858   1.4928186   4.0396838
  14   4.2019263  -3.9535939  -1.4067292
  14   4.2019266  -3.9535938   4.0396841
  14   4.2019273   1.4928195  -1.4067291
  14   4.2019276   1.4928196   4.0396841
  14  -2.6885555  -2.7396685  -0.0000637
  14  -2.6885545   2.7067449  -0.0000636
  14   2.7578579  -2.7396675  -0.0000634
  14   2.7578589   2.7067459  -0.0000633
  14  -1.5181501  -1.2355576  -4.0348553
  14  -1.5181498  -1.2355575   1.4115580
  14  -1.5181491   4.2108558  -4.0348552
  14  -1.5181488   4.2108559   1.4115580
  14   3.9282632  -1.2355566  -4.0348550
  14   3.9282635  -1.2355565   1.4115583
  14   3.9282642   4.2108568  -4.0348549
  14   3.9282645   4.2108569   1.4115583
ATOMS   12
  32  -0.0001168  -0.0000189   0.0000385
  14  -3.9697572  -4.1532857  -4.0722893
  14  -3.9697569  -4.1532856   1.3741240
  14  -3.9697562   1.2931277  -4.0722892
  14  -3.9697559   1.2931278   1.3741241
  14   1.4766561  -4.1532847  -4.0722890
  14   1.4766564  -4.1532846   1.3741243
  14   1.4766571   1.2931287  -4.0722889
  14   1.4766574   1.2931288   1.3741244
  14   0.0001342  -2.7101823  -2.9283800
  14   0.0001345  -2.7101823   2.5180333
  14   0.0001352   2.7362311  -2.9283799
  14   0.0001355   2.7362311   2.5180334
  14  -4.1603520  -1.4965648  -1.3612365
  14  -4.1603517  -1.4965647   4.0851767
  14  -4.1603510   3.9498486  -1.3612365
  14  -4.1603507   3.9498487   4.0851768
  14   1.2860614  -1.4965638  -1.3612362
  14   1.2860617  -1.4965637   4.0851770
  14   1.2860624   3.9498496  -1.3612361
  14   1.2860627   3.9498497   4.0851771
  14  -2.7505563   0.0000226  -2.5180737
  14  -2.7505560   0.0000226   2.9283396
  14   2.6958571   0.0000236  -2.5180734
  14   2.6958574   0.0000236   2.9283399
  14  -1.2730925  -3.9769050  -1.4014168
  14  -1.2730922  -3.9769049   4.0449965
  14  -1.2730915   1.4695084  -1.4014167
  14  -1.2730912   1.4695084   4.0449966
  14   4.1733208  -3.9769040  -1.4014165
  14   4.1733211  -3.9769039   4.0449968
  14   4.1733218   1.4695094  -1.4014164
  14   4.1733221   1.4695094   4.0449969
  14  -2.6957997  -2.7362271  -0.0000507
  14  -2.6957987   2.7101863  -0.0000506
  14   2.7506137  -2.7362261  -0.0000504
  14   2.7506147   2.7101873  -0.0000503
  14  -1.4895447  -1.2660300  -4.0367518
  14  -1.4895444  -1.2660299   1.4096615
  14  -1.4895437   4.1803834  -4.0367517
  14  -1.4895434   4.1803835   1.4096616
  14   3.9568687  -1.2660290  -4.0367515
  14   3.9568690  -1.2660289   1.4096618
  14   3.9568697   4.1803844  -4.0367514
  14   3.9568700   4.1803845   1.4096619
ATOMS   13
  32  -0.0000810  -0.0000129   0.0000265
  14  -3.9991229  -4.1261212  -4.0700729
  14  -3.9991226  -4.1261211   1.3763404
  14  -3.9991219   1.3202922  -4.0700728
  14  -3.9991216   1.3202923   1.3763405
  14   1.4472904  -4.1261202  -4.0700725
  14   1.4472908  -4.1261201   1.3763407
  14   1.4472914   1.3202932  -4.0700725
  14   1.4472918   1.3202933   1.3763408
  14   0.0000926  -2.7141940  -2.8651827
  14   0.0000929  -2.7141940   2.5812306
  14   0.0000936   2.7322194  -2.8651826
  14   0.0000939   2.7322194   2.5812307
  14  -4.1310118  -1.4610664  -1.3674214
  14  -4.1310115  -1.4610663   4.0789919
  14  -4.1310108   3.9853470  -1.3674213
  14  -4.1310105   3.9853471   4.0789920
  14   1.3154016  -1.4610654  -1.3674211
  14   1.3154019  -1.4610653   4.0789922
  14   1.3154026   3.9853480  -1.3674210
  14   1.3154029   3.9853481   4.0789923
  14  -2.7421321   0.0000153  -2.5812583
  14  -2.7421318   0.0000154   2.8651550
  14   2.7042813   0.0000163  -2.5812580
  14   2.7042816   0.0000164   2.8651553
  14  -1.3064279  -4.0040696  -1.3952255
  14  -1.3064276  -4.0040695   4.0511877
  14  -1.3064269   1.4423438  -1.3952255
  14  -1.3064266   1.4423439   4.0511878
  14   4.1399854  -4.0040686  -1.3952252
  14   4.1399857  -4.0040685   4.0511880
  14   4.1399864   1.4423448  -1.3952252
  14   4.1399867   1.4423449   4.0511881
  14  -2.7042417  -2.7322167  -0.0000355
  14  -2.7042407   2.7141967  -0.0000354
  14   2.7421717  -2.7322157  -0.0000352
  14   2.7421727   2.7141977  -0.0000351
  14  -1.4562093  -1.3015411  -4.0389618
  14  -1.4562090  -1.3015410   1.4074514
  14  -1.4562083   4.1448723  -4.0389618
  14  -1.4562080   4.1448724   1.4074515
  14   3.9902041  -1.3015401  -4.0389615
  14   3.9902044  -1.3015400   1.4074517
  14   3.9902051   4.1448733  -4.0389615
  14   3.9902054   4.1448734   1.4074518
ATOMS   14
  32  -0.0000418  -0.0000064   0.0000133
  14  -4.0313719  -4.0962895  -4.0676388
  14  -4.0313716  -4.0962894   1.3787745
  14  -4.0313709   1.3501239  -4.0676387
  14  -4.0313706   1.3501240   1.3787745
  14   1.4150415  -4.0962885  -4.0676385
  14   1.4150418  -4.0962884   1.3787748
  14   1.4150425   1.3501249  -4.0676384
  14   1.4150428   1.3501250   1.3787748
  14   0.0000470  -2.7185996  -2.7957803
  14   0.0000473  -2.7185995   2.6506330
  14   0.0000480   2.7278138  -2.7957802
  14   0.0000483   2.7278138   2.6506330
  14  -4.0987907  -1.4220826  -1.3742135
  14  -4.0987904  -1.4220825   4.0721998
  14  -4.0987897   4.0243308  -1.3742134
  14  -4.0987894   4.0243309   4.0721998
  14   1.3476226  -1.4220816  -1.3742132
  14   1.3476229  -1.4220815   4.0722001
  14   1.3476236   4.0243318  -1.3742131
  14   1.3476239   4.0243319   4.0722001
  14  -2.7328808   0.0000074  -2.6506466
  14  -2.7328805   0.0000074   2.7957666
  14   2.7135326   0.0000084  -2.6506463
  14   2.7135329   0.0000084   2.7957669
  14  -1.3430364  -4.0339013  -1.3884264
  14  -1.3430361  -4.0339012   4.0579868
  14  -1.3430354   1.4125121  -1.3884264
  14  -1.3430351   1.4125122   4.0579869
  14   4.1033770  -4.0339002  -1.3884261
  14   4.1033773  -4.0339002   4.0579871
  14   4.1033780   1.4125131  -1.3884260
  14   4.1033783   1.4125132   4.0579872
  14  -2.7135125  -2.7278125  -0.0000188
  14  -2.7135115   2.7186009  -0.0000187
  14   2.7329008  -2.7278115  -0.0000185
  14   2.7329018   2.7186019  -0.0000184
  14  -1.4196009  -1.3405389  -4.0413889
  14  -1.4196006  -1.3405388   1.4050244
  14  -1.4195999   4.1058745  -4.0413888
  14  -1.4195996   4.1058746   1.4050244
  14   4.0268125  -1.3405379  -4.0413886
  14   4.0268128  -1.3405378   1.4050247
  14   4.0268135   4.1058755  -4.0413885
  14   4.0268138   4.1058756   1.4050247
ATOMS   15
  32  -0.0000007   0.0000004  -0.0000005
  14  -4.0650947  -4.0650944  -4.0650935
  14  -4.0650944  -4.0650943   1.3813197
  14  -4.0650937   1.3813190  -4.0650935
  14  -4.0650934   1.3813191   1.3813198
  14   1.3813187  -4.0650934  -4.0650932
  14   1.3813190  -4.0650933   1.3813200
  14   1.3813197   1.3813200  -4.0650932
  14   1.3813200   1.3813201   1.3813201
  14  -0.0000008  -2.7232066  -2.7232061
  14  -0.0000004  -2.7232065   2.7232072
  14   0.0000002   2.7232068  -2.7232060
  14   0.0000006   2.7232069   2.7232072
  14  -4.0650971  -1.3813171  -1.3813161
  14  -4.0650968  -1.3813170   4.0650972
  14  -4.0650961   4.0650963  -1.3813160
  14  -4.0650958   4.0650964   4.0650973
  14   1.3813162  -1.3813161  -1.3813157
  14   1.3813165  -1.3813160   4.0650975
  14   1.3813172   4.0650973  -1.3813157
  14   1.3813175   4.0650974   4.0650976
  14  -2.7232067  -0.0000009  -2.7232062
  14  -2.7232064  -0.0000009   2.7232070
  14   2.7232067   0.0000001  -2.7232059
  14   2.7232070   0.0000001   2.7232073
  14  -1.3813179  -4.0650963  -1.3813166
  14  -1.3813176  -4.0650962   4.0650967
  14  -1.3813169   1.3813171  -1.3813165
  14  -1.3813166   1.3813171   4.0650968
  14   4.0650954  -4.0650953  -1.3813163
  14   4.0650957  -4.0650952   4.0650970
  14   4.0650964   1.3813181  -1.3813162
  14   4.0650968   1.3813181   4.0650971
  14  -2.7232071  -2.7232070  -0.0000013
  14  -2.7232061   2.7232064  -0.0000013
  14   2.7232063  -2.7232060  -0.0000010
  14   2.7232073   2.7232074  -0.0000010
  14  -1.3813193  -1.3813190  -4.0439269
  14  -1.3813190  -1.3813189   1.4024864
  14  -1.3813183   4.0650944  -4.0439268
  14  -1.3813180   4.0650945   1.4024865
  14   4.0650940  -1.3813180  -4.0439266
  14   4.0650944  -1.3813179   1.4024867
  14   4.0650951   4.0650954  -4.0439265
  14   4.0650954   4.0650955   1.4024868
ATOMS   16
  32   0.0000403   0.0000072  -0.0000143
  14  -4.0988176  -4.0338993  -4.0625482
  14  -4.0988172  -4.0338992   1.3838650
  14  -4.0988166   1.4125141  -4.0625482
  14  -4.0988162   1.4125141   1.3838651
  14   1.3475958  -4.0338983  -4.0625479
  14   1.3475961  -4.0338982   1.3838653
  14   1.3475968   1.4125151  -4.0625479
  14   1.3475971   1.4125151   1.3838654
  14  -0.0000485  -2.7278135  -2.6506319
  14  -0.0000482  -2.7278134   2.7957814
  14  -0.0000475   2.7185999  -2.6506318
  14  -0.0000472   2.7186000   2.7957814
  14  -4.0314036  -1.3405517  -1.3884186
  14  -4.0314032  -1.3405516   4.0579947
  14  -4.0314025   4.1058617  -1.3884185
  14  -4.0314022   4.1058618   4.0579947
  14   1.4150098  -1.3405507  -1.3884183
  14   1.4150101  -1.3405506   4.0579950
  14   1.4150108   4.1058627  -1.3884182
  14   1.4150111   4.1058628   4.0579950
  14  -2.7135325  -0.0000093  -2.7957658
  14  -2.7135322  -0.0000092   2.6506474
  14   2.7328808  -0.0000083  -2.7957655
  14   2.7328811  -0.0000082   2.6506477
  14  -1.4195995  -4.0962914  -1.3742067
  14  -1.4195992  -4.0962913   4.0722065
  14  -1.4195985   1.3501220  -1.3742067
  14  -1.4195982   1.3501221   4.0722066
  14   4.0268139  -4.0962904  -1.3742064
  14   4.0268142  -4.0962903   4.0722068
  14   4.0268149   1.3501230  -1.3742064
  14   4.0268152   1.3501231   4.0722069
  14  -2.7329017  -2.7186015   0.0000161
  14  -2.7329007   2.7278119   0.0000162
  14   2.7135117  -2.7186005   0.0000164
  14   2.7135127   2.7278129   0.0000165
  14  -1.3430378  -1.4220990  -4.0464649
  14  -1.3430375  -1.4220990   1.3999484
  14  -1.3430368   4.0243144  -4.0464648
  14  -1.3430365   4.0243144   1.3999485
  14   4.1033756  -1.4220980  -4.0464645
  14   4.1033759  -1.4220980   1.3999487
  14   4.1033766   4.0243154  -4.0464645
  14   4.1033769   4.0243154   1.3999488
ATOMS   17
  32   0.0000796   0.0000137  -0.0000275
  14  -4.1310665  -4.0040676  -4.0601142
  14  -4.1310662  -4.0040676   1.3862991
  14  -4.1310655   1.4423458  -4.0601141
  14  -4.1310652   1.4423458   1.3862991