# --- AXSF block for ---- iev =     6  freq =     107.952340 cm-1
ANIMSTEPS   30
ATOMS    1
  32  -0.0446800  -0.0568275  -0.0074664
  14  -4.0908259  -4.0815612  -4.1187876
  14  -4.0908256  -4.0815611   1.3276256
  14  -4.0908249   1.3648522  -4.1187876
  14  -4.0908246   1.3648522   1.3276257
  14   1.3555874  -4.0815602  -4.1187873
  14   1.3555878  -4.0815601   1.3276259
  14   1.3555884   1.3648532  -4.1187872
  14   1.3555888   1.3648532   1.3276260
  14   0.0569550  -2.7100911  -2.7214786
  14   0.0569554  -2.7100910   2.7249347
  14   0.0569560   2.7363223  -2.7214785
  14   0.0569564   2.7363224   2.7249348
  14  -4.0202726  -1.3486810  -1.3863669
  14  -4.0202723  -1.3486809   4.0600463
  14  -4.0202716   4.0977324  -1.3863668
  14  -4.0202713   4.0977324   4.0600464
  14   1.4261408  -1.3486800  -1.3863666
  14   1.4261411  -1.3486799   4.0600467
  14   1.4261418   4.0977334  -1.3863665
  14   1.4261421   4.0977334   4.0600467
  14  -2.7128360   0.0724432  -2.7215384
  14  -2.7128357   0.0724432   2.7248749
  14   2.7335774   0.0724442  -2.7215381
  14   2.7335777   0.0724442   2.7248752
  14  -1.3446762  -4.0243346  -1.3730670
  14  -1.3446759  -4.0243345   4.0733463
  14  -1.3446752   1.4220788  -1.3730669
  14  -1.3446749   1.4220789   4.0733464
  14   4.1017371  -4.0243336  -1.3730667
  14   4.1017374  -4.0243335   4.0733466
  14   4.1017381   1.4220798  -1.3730666
  14   4.1017384   1.4220799   4.0733467
  14  -2.7132675  -2.7104959   0.0095167
  14  -2.7132665   2.7359175   0.0095168
  14   2.7331459  -2.7104949   0.0095170
  14   2.7331469   2.7359185   0.0095171
  14  -1.3988524  -1.3896525  -3.9870474
  14  -1.3988521  -1.3896524   1.4593659
  14  -1.3988514   4.0567609  -3.9870473
  14  -1.3988511   4.0567609   1.4593660
  14   4.0475610  -1.3896515  -3.9870471
  14   4.0475613  -1.3896514   1.4593662
  14   4.0475620   4.0567619  -3.9870470
  14   4.0475623   4.0567619   1.4593663
ATOMS    2
  32  -0.0874066  -0.1111717  -0.0146061
  14  -4.1154326  -4.0973084  -4.1701350
  14  -4.1154323  -4.0973083   1.2762782
  14  -4.1154316   1.3491050  -4.1701350
  14  -4.1154313   1.3491051   1.2762783
  14   1.3309808  -4.0973074  -4.1701347
  14   1.3309811  -4.0973073   1.2762785
  14   1.3309818   1.3491060  -4.1701347
  14   1.3309821   1.3491061   1.2762786
  14   0.1114216  -2.6975488  -2.7198265
  14   0.1114219  -2.6975487   2.7265868
  14   0.1114226   2.7488646  -2.7198264
  14   0.1114229   2.7488647   2.7265868
  14  -3.9774071  -1.3174713  -1.3911971
  14  -3.9774068  -1.3174712   4.0552162
  14  -3.9774061   4.1289421  -1.3911970
  14  -3.9774058   4.1289422   4.0552163
  14   1.4690063  -1.3174703  -1.3911967
  14   1.4690066  -1.3174702   4.0552165
  14   1.4690073   4.1289431  -1.3911967
  14   1.4690076   4.1289432   4.0552166
  14  -2.7029185   0.1417211  -2.7199434
  14  -2.7029182   0.1417212   2.7264698
  14   2.7434948   0.1417221  -2.7199431
  14   2.7434951   0.1417222   2.7264702
  14  -1.3096360  -3.9853543  -1.3651779
  14  -1.3096357  -3.9853543   4.0812354
  14  -1.3096350   1.4610591  -1.3651778
  14  -1.3096347   1.4610591   4.0812355
  14   4.1367774  -3.9853533  -1.3651776
  14   4.1367777  -3.9853533   4.0812357
  14   4.1367784   1.4610601  -1.3651775
  14   4.1367787   1.4610601   4.0812358
  14  -2.7037623  -2.6983403   0.0186188
  14  -2.7037613   2.7480731   0.0186189
  14   2.7426511  -2.6983393   0.0186191
  14   2.7426521   2.7480741   0.0186192
  14  -1.4156192  -1.3976218  -3.9326538
  14  -1.4156189  -1.3976218   1.5137595
  14  -1.4156182   4.0487915  -3.9326537
  14  -1.4156179   4.0487916   1.5137596
  14   4.0307942  -1.3976208  -3.9326535
  14   4.0307945  -1.3976208   1.5137598
  14   4.0307952   4.0487925  -3.9326534
  14   4.0307955   4.0487926   1.5137599
ATOMS    3
  32  -0.1263131  -0.1606571  -0.0211074
  14  -4.1378392  -4.1116476  -4.2168916
  14  -4.1378389  -4.1116475   1.2295216
  14  -4.1378382   1.3347658  -4.2168916
  14  -4.1378379   1.3347659   1.2295217
  14   1.3085742  -4.1116466  -4.2168913
  14   1.3085745  -4.1116465   1.2295219
  14   1.3085752   1.3347668  -4.2168913
  14   1.3085755   1.3347669   1.2295220
  14   0.1610185  -2.6861279  -2.7183221
  14   0.1610188  -2.6861278   2.7280911
  14   0.1610195   2.7602855  -2.7183221
  14   0.1610198   2.7602856   2.7280912
  14  -3.9383740  -1.2890519  -1.3955953
  14  -3.9383737  -1.2890518   4.0508179
  14  -3.9383730   4.1573615  -1.3955952
  14  -3.9383727   4.1573616   4.0508180
  14   1.5080393  -1.2890509  -1.3955950
  14   1.5080396  -1.2890508   4.0508183
  14   1.5080403   4.1573625  -1.3955949
  14   1.5080406   4.1573626   4.0508183
  14  -2.6938878   0.2048052  -2.7184911
  14  -2.6938875   0.2048052   2.7279222
  14   2.7525256   0.2048062  -2.7184908
  14   2.7525259   0.2048062   2.7279225
  14  -1.2777285  -3.9498592  -1.3579941
  14  -1.2777282  -3.9498591   4.0884191
  14  -1.2777275   1.4965542  -1.3579941
  14  -1.2777272   1.4965543   4.0884192
  14   4.1686848  -3.9498582  -1.3579938
  14   4.1686851  -3.9498581   4.0884194
  14   4.1686858   1.4965552  -1.3579938
  14   4.1686861   1.4965553   4.0884195
  14  -2.6951070  -2.6872716   0.0269071
  14  -2.6951060   2.7591418   0.0269072
  14   2.7513064  -2.6872706   0.0269074
  14   2.7513074   2.7591428   0.0269075
  14  -1.4308869  -1.4048787  -3.8831234
  14  -1.4308866  -1.4048786   1.5632899
  14  -1.4308859   4.0415347  -3.8831233
  14  -1.4308856   4.0415348   1.5632900
  14   4.0155264  -1.4048777  -3.8831230
  14   4.0155268  -1.4048776   1.5632902
  14   4.0155274   4.0415357  -3.8831230
  14   4.0155278   4.0415358   1.5632903
ATOMS    4
  32  -0.1596992  -0.2031211  -0.0266862
  14  -4.1570665  -4.1239523  -4.2570139
  14  -4.1570662  -4.1239522   1.1893994
  14  -4.1570655   1.3224611  -4.2570138
  14  -4.1570652   1.3224612   1.1893994
  14   1.2893469  -4.1239513  -4.2570136
  14   1.2893472  -4.1239512   1.1893997
  14   1.2893479   1.3224621  -4.2570135
  14   1.2893482   1.3224622   1.1893997
  14   0.2035780  -2.6763275  -2.7170313
  14   0.2035783  -2.6763275   2.7293820
  14   0.2035790   2.7700859  -2.7170312
  14   0.2035793   2.7700859   2.7293821
  14  -3.9048794  -1.2646650  -1.3993695
  14  -3.9048791  -1.2646649   4.0470437
  14  -3.9048784   4.1817484  -1.3993695
  14  -3.9048781   4.1817485   4.0470438
  14   1.5415340  -1.2646640  -1.3993692
  14   1.5415343  -1.2646639   4.0470440
  14   1.5415350   4.1817494  -1.3993691
  14   1.5415353   4.1817495   4.0470441
  14  -2.6861384   0.2589382  -2.7172448
  14  -2.6861381   0.2589383   2.7291685
  14   2.7602750   0.2589392  -2.7172445
  14   2.7602753   0.2589393   2.7291688
  14  -1.2503485  -3.9194005  -1.3518297
  14  -1.2503482  -3.9194004   4.0945836
  14  -1.2503475   1.5270129  -1.3518296
  14  -1.2503472   1.5270130   4.0945836
  14   4.1960649  -3.9193995  -1.3518294
  14   4.1960652  -3.9193994   4.0945839
  14   4.1960659   1.5270139  -1.3518293
  14   4.1960662   1.5270140   4.0945840
  14  -2.6876797  -2.6777733   0.0340194
  14  -2.6876787   2.7686400   0.0340194
  14   2.7587337  -2.6777723   0.0340197
  14   2.7587347   2.7686410   0.0340198
  14  -1.4439883  -1.4111058  -3.8406208
  14  -1.4439880  -1.4111058   1.6057925
  14  -1.4439873   4.0353076  -3.8406207
  14  -1.4439870   4.0353076   1.6057925
  14   4.0024251  -1.4111048  -3.8406205
  14   4.0024254  -1.4111048   1.6057928
  14   4.0024261   4.0353086  -3.8406204
  14   4.0024264   4.0353086   1.6057928
ATOMS    5
  32  -0.1861056  -0.2367077  -0.0310987
  14  -4.1722743  -4.1336845  -4.2887484
  14  -4.1722739  -4.1336844   1.1576649
  14  -4.1722733   1.3127289  -4.2887483
  14  -4.1722729   1.3127289   1.1576650
  14   1.2741391  -4.1336835  -4.2887481
  14   1.2741394  -4.1336834   1.1576652
  14   1.2741401   1.3127299  -4.2887480
  14   1.2741404   1.3127299   1.1576653
  14   0.2372402  -2.6685760  -2.7160102
  14   0.2372405  -2.6685759   2.7304030
  14   0.2372412   2.7778374  -2.7160102
  14   0.2372415   2.7778375   2.7304031
  14  -3.8783871  -1.2453763  -1.4023547
  14  -3.8783868  -1.2453762   4.0440586
  14  -3.8783861   4.2010371  -1.4023546
  14  -3.8783858   4.2010372   4.0440586
  14   1.5680263  -1.2453753  -1.4023544
  14   1.5680266  -1.2453752   4.0440589
  14   1.5680273   4.2010381  -1.4023543
  14   1.5680276   4.2010382   4.0440589
  14  -2.6800091   0.3017543  -2.7162590
  14  -2.6800088   0.3017544   2.7301542
  14   2.7664043   0.3017553  -2.7162587
  14   2.7664046   0.3017554   2.7301545
  14  -1.2286924  -3.8953093  -1.3469540
  14  -1.2286921  -3.8953093   4.0994593
  14  -1.2286914   1.5511041  -1.3469539
  14  -1.2286911   1.5511041   4.0994594
  14   4.2177210  -3.8953083  -1.3469537
  14   4.2177213  -3.8953083   4.0994596
  14   4.2177220   1.5511051  -1.3469536
  14   4.2177223   1.5511051   4.0994597
  14  -2.6818052  -2.6702608   0.0396448
  14  -2.6818042   2.7761526   0.0396448
  14   2.7646082  -2.6702598   0.0396451
  14   2.7646092   2.7761536   0.0396451
  14  -1.4543508  -1.4160311  -3.8070037
  14  -1.4543505  -1.4160311   1.6394096
  14  -1.4543498   4.0303822  -3.8070036
  14  -1.4543495   4.0303823   1.6394096
  14   3.9920626  -1.4160301  -3.8070034
  14   3.9920629  -1.4160301   1.6394099
  14   3.9920636   4.0303832  -3.8070033
  14   3.9920639   4.0303833   1.6394099
ATOMS    6
  32  -0.2043784  -0.2599490  -0.0341521
  14  -4.1827977  -4.1404191  -4.3107080
  14  -4.1827974  -4.1404190   1.1357053
  14  -4.1827967   1.3059943  -4.3107079
  14  -4.1827964   1.3059944   1.1357053
  14   1.2636157  -4.1404181  -4.3107077
  14   1.2636160  -4.1404180   1.1357056
  14   1.2636167   1.3059953  -4.3107076
  14   1.2636170   1.3059954   1.1357056
  14   0.2605338  -2.6632120  -2.7153037
  14   0.2605341  -2.6632120   2.7311096
  14   0.2605348   2.7832013  -2.7153036
  14   0.2605351   2.7832014   2.7311096
  14  -3.8600549  -1.2320289  -1.4044204
  14  -3.8600546  -1.2320288   4.0419929
  14  -3.8600539   4.2143845  -1.4044203
  14  -3.8600536   4.2143846   4.0419930
  14   1.5863585  -1.2320279  -1.4044201
  14   1.5863588  -1.2320278   4.0419932
  14   1.5863595   4.2143855  -1.4044200
  14   1.5863598   4.2143856   4.0419933
  14  -2.6757677   0.3313823  -2.7155769
  14  -2.6757674   0.3313824   2.7308363
  14   2.7706456   0.3313833  -2.7155766
  14   2.7706460   0.3313834   2.7308367
  14  -1.2137068  -3.8786387  -1.3435801
  14  -1.2137065  -3.8786386   4.1028332
  14  -1.2137058   1.5677747  -1.3435800
  14  -1.2137055   1.5677747   4.1028333
  14   4.2327066  -3.8786377  -1.3435798
  14   4.2327069  -3.8786376   4.1028335
  14   4.2327076   1.5677757  -1.3435797
  14   4.2327079   1.5677757   4.1028336
  14  -2.6777401  -2.6650622   0.0435374
  14  -2.6777391   2.7813511   0.0435375
  14   2.7686733  -2.6650612   0.0435377
  14   2.7686743   2.7813521   0.0435378
  14  -1.4615214  -1.4194394  -3.7837413
  14  -1.4615211  -1.4194393   1.6626720
  14  -1.4615204   4.0269740  -3.7837412
  14  -1.4615201   4.0269741   1.6626720
  14   3.9848920  -1.4194384  -3.7837410
  14   3.9848923  -1.4194383   1.6626723
  14   3.9848930   4.0269750  -3.7837409
  14   3.9848933   4.0269751   1.6626723
ATOMS    7
  32  -0.2137189  -0.2718292  -0.0357129
  14  -4.1881770  -4.1438616  -4.3219331
  14  -4.1881767  -4.1438615   1.1244801
  14  -4.1881760   1.3025518  -4.3219331
  14  -4.1881757   1.3025519   1.1244802
  14   1.2582364  -4.1438606  -4.3219328
  14   1.2582367  -4.1438605   1.1244804
  14   1.2582374   1.3025528  -4.3219328
  14   1.2582377   1.3025529   1.1244805
  14   0.2724408  -2.6604702  -2.7149425
  14   0.2724411  -2.6604701   2.7314707
  14   0.2724418   2.7859432  -2.7149425
  14   0.2724421   2.7859433   2.7314708
  14  -3.8506840  -1.2252061  -1.4054763
  14  -3.8506837  -1.2252060   4.0409370
  14  -3.8506830   4.2212073  -1.4054762
  14  -3.8506827   4.2212074   4.0409370
  14   1.5957294  -1.2252051  -1.4054760
  14   1.5957297  -1.2252050   4.0409373
  14   1.5957304   4.2212083  -1.4054759
  14   1.5957307   4.2212084   4.0409373
  14  -2.6735997   0.3465272  -2.7152282
  14  -2.6735994   0.3465273   2.7311850
  14   2.7728137   0.3465282  -2.7152279
  14   2.7728140   0.3465283   2.7311853
  14  -1.2060466  -3.8701172  -1.3418554
  14  -1.2060463  -3.8701171   4.1045578
  14  -1.2060456   1.5762962  -1.3418554
  14  -1.2060453   1.5762963   4.1045579
  14   4.2403668  -3.8701162  -1.3418551
  14   4.2403671  -3.8701161   4.1045581
  14   4.2403678   1.5762972  -1.3418551
  14   4.2403681   1.5762973   4.1045582
  14  -2.6756621  -2.6624049   0.0455272
  14  -2.6756611   2.7840085   0.0455273
  14   2.7707512  -2.6624039   0.0455276
  14   2.7707522   2.7840095   0.0455276
  14  -1.4651868  -1.4211816  -3.7718502
  14  -1.4651865  -1.4211815   1.6745630
  14  -1.4651858   4.0252318  -3.7718502
  14  -1.4651855   4.0252319   1.6745631
  14   3.9812266  -1.4211806  -3.7718499
  14   3.9812269  -1.4211805   1.6745633
  14   3.9812276   4.0252328  -3.7718499
  14   3.9812279   4.0252329   1.6745634
ATOMS    8
  32  -0.2137189  -0.2718292  -0.0357129
  14  -4.1881770  -4.1438616  -4.3219331
  14  -4.1881767  -4.1438615   1.1244801
  14  -4.1881760   1.3025518  -4.3219331
  14  -4.1881757   1.3025519   1.1244802
  14   1.2582364  -4.1438606  -4.3219328
  14   1.2582367  -4.1438605   1.1244804
  14   1.2582374   1.3025528  -4.3219328
  14   1.2582377   1.3025529   1.1244805
  14   0.2724408  -2.6604702  -2.7149425
  14   0.2724411  -2.6604701   2.7314707
  14   0.2724418   2.7859432  -2.7149425
  14   0.2724421   2.7859433   2.7314708
  14  -3.8506840  -1.2252061  -1.4054763
  14  -3.8506837  -1.2252060   4.0409370
  14  -3.8506830   4.2212073  -1.4054762
  14  -3.8506827   4.2212074   4.0409370
  14   1.5957294  -1.2252051  -1.4054760
  14   1.5957297  -1.2252050   4.0409373
  14   1.5957304   4.2212083  -1.4054759
  14   1.5957307   4.2212084   4.0409373
  14  -2.6735997   0.3465272  -2.7152282
  14  -2.6735994   0.3465273   2.7311850
  14   2.7728137   0.3465282  -2.7152279
  14   2.7728140   0.3465283   2.7311853
  14  -1.2060466  -3.8701172  -1.3418554
  14  -1.2060463  -3.8701171   4.1045578
  14  -1.2060456   1.5762962  -1.3418554
  14  -1.2060453   1.5762963   4.1045579
  14   4.2403668  -3.8701162  -1.3418551
  14   4.2403671  -3.8701161   4.1045581
  14   4.2403678   1.5762972  -1.3418551
  14   4.2403681   1.5762973   4.1045582
  14  -2.6756621  -2.6624049   0.0455272
  14  -2.6756611   2.7840085   0.0455273
  14   2.7707512  -2.6624039   0.0455276
  14   2.7707522   2.7840095   0.0455276
  14  -1.4651868  -1.4211816  -3.7718502
  14  -1.4651865  -1.4211815   1.6745630
  14  -1.4651858   4.0252318  -3.7718502
  14  -1.4651855   4.0252319   1.6745631
  14   3.9812266  -1.4211806  -3.7718499
  14   3.9812269  -1.4211805   1.6745633
  14   3.9812276   4.0252328  -3.7718499
  14   3.9812279   4.0252329   1.6745634
ATOMS    9
  32  -0.2043784  -0.2599490  -0.0341521
  14  -4.1827977  -4.1404191  -4.3107080
  14  -4.1827974  -4.1404190   1.1357053
  14  -4.1827967   1.3059943  -4.3107079
  14  -4.1827964   1.3059944   1.1357053
  14   1.2636157  -4.1404181  -4.3107077
  14   1.2636160  -4.1404180   1.1357056
  14   1.2636167   1.3059953  -4.3107076
  14   1.2636170   1.3059954   1.1357056
  14   0.2605338  -2.6632120  -2.7153037
  14   0.2605341  -2.6632120   2.7311096
  14   0.2605348   2.7832013  -2.7153036
  14   0.2605351   2.7832014   2.7311096
  14  -3.8600549  -1.2320289  -1.4044204
  14  -3.8600546  -1.2320288   4.0419929
  14  -3.8600539   4.2143845  -1.4044203
  14  -3.8600536   4.2143846   4.0419930
  14   1.5863585  -1.2320279  -1.4044201
  14   1.5863588  -1.2320278   4.0419932
  14   1.5863595   4.2143855  -1.4044200
  14   1.5863598   4.2143856   4.0419933
  14  -2.6757677   0.3313823  -2.7155769
  14  -2.6757674   0.3313824   2.7308363
  14   2.7706456   0.3313833  -2.7155766
  14   2.7706460   0.3313834   2.7308367
  14  -1.2137068  -3.8786387  -1.3435801
  14  -1.2137065  -3.8786386   4.1028332
  14  -1.2137058   1.5677747  -1.3435800
  14  -1.2137055   1.5677747   4.1028333
  14   4.2327066  -3.8786377  -1.3435798
  14   4.2327069  -3.8786376   4.1028335
  14   4.2327076   1.5677757  -1.3435797
  14   4.2327079   1.5677757   4.1028336
  14  -2.6777401  -2.6650622   0.0435374
  14  -2.6777391   2.7813511   0.0435375
  14   2.7686733  -2.6650612   0.0435377
  14   2.7686743   2.7813521   0.0435378
  14  -1.4615214  -1.4194394  -3.7837413
  14  -1.4615211  -1.4194393   1.6626720
  14  -1.4615204   4.0269740  -3.7837412
  14  -1.4615201   4.0269741   1.6626720
  14   3.9848920  -1.4194384  -3.7837410
  14   3.9848923  -1.4194383   1.6626723
  14   3.9848930   4.0269750  -3.7837409
  14   3.9848933   4.0269751   1.6626723
ATOMS   10
  32  -0.1861056  -0.2367077  -0.0310987
  14  -4.1722743  -4.1336845  -4.2887484
  14  -4.1722739  -4.1336844   1.1576649
  14  -4.1722733   1.3127289  -4.2887483
  14  -4.1722729   1.3127289   1.1576650
  14   1.2741391  -4.1336835  -4.2887481
  14   1.2741394  -4.1336834   1.1576652
  14   1.2741401   1.3127299  -4.2887480
  14   1.2741404   1.3127299   1.1576653
  14   0.2372402  -2.6685760  -2.7160102
  14   0.2372405  -2.6685759   2.7304030
  14   0.2372412   2.7778374  -2.7160102
  14   0.2372415   2.7778375   2.7304031
  14  -3.8783871  -1.2453763  -1.4023547
  14  -3.8783868  -1.2453762   4.0440586
  14  -3.8783861   4.2010371  -1.4023546
  14  -3.8783858   4.2010372   4.0440586
  14   1.5680263  -1.2453753  -1.4023544
  14   1.5680266  -1.2453752   4.0440589
  14   1.5680273   4.2010381  -1.4023543
  14   1.5680276   4.2010382   4.0440589
  14  -2.6800091   0.3017543  -2.7162590
  14  -2.6800088   0.3017544   2.7301542
  14   2.7664043   0.3017553  -2.7162587
  14   2.7664046   0.3017554   2.7301545
  14  -1.2286924  -3.8953093  -1.3469540
  14  -1.2286921  -3.8953093   4.0994593
  14  -1.2286914   1.5511041  -1.3469539
  14  -1.2286911   1.5511041   4.0994594
  14   4.2177210  -3.8953083  -1.3469537
  14   4.2177213  -3.8953083   4.0994596
  14   4.2177220   1.5511051  -1.3469536
  14   4.2177223   1.5511051   4.0994597
  14  -2.6818052  -2.6702608   0.0396448
  14  -2.6818042   2.7761526   0.0396448
  14   2.7646082  -2.6702598   0.0396451
  14   2.7646092   2.7761536   0.0396451
  14  -1.4543508  -1.4160311  -3.8070037
  14  -1.4543505  -1.4160311   1.6394096
  14  -1.4543498   4.0303822  -3.8070036
  14  -1.4543495   4.0303823   1.6394096
  14   3.9920626  -1.4160301  -3.8070034
  14   3.9920629  -1.4160301   1.6394099
  14   3.9920636   4.0303832  -3.8070033
  14   3.9920639   4.0303833   1.6394099
ATOMS   11
  32  -0.1596992  -0.2031211  -0.0266862
  14  -4.1570665  -4.1239523  -4.2570139
  14  -4.1570662  -4.1239522   1.1893994
  14  -4.1570655   1.3224611  -4.2570138
  14  -4.1570652   1.3224612   1.1893994
  14   1.2893469  -4.1239513  -4.2570136
  14   1.2893472  -4.1239512   1.1893997
  14   1.2893479   1.3224621  -4.2570135
  14   1.2893482   1.3224622   1.1893997
  14   0.2035780  -2.6763275  -2.7170313
  14   0.2035783  -2.6763275   2.7293820
  14   0.2035790   2.7700859  -2.7170312
  14   0.2035793   2.7700859   2.7293821
  14  -3.9048794  -1.2646650  -1.3993695
  14  -3.9048791  -1.2646649   4.0470437
  14  -3.9048784   4.1817484  -1.3993695
  14  -3.9048781   4.1817485   4.0470438
  14   1.5415340  -1.2646640  -1.3993692
  14   1.5415343  -1.2646639   4.0470440
  14   1.5415350   4.1817494  -1.3993691
  14   1.5415353   4.1817495   4.0470441
  14  -2.6861384   0.2589382  -2.7172448
  14  -2.6861381   0.2589383   2.7291685
  14   2.7602750   0.2589392  -2.7172445
  14   2.7602753   0.2589393   2.7291688
  14  -1.2503485  -3.9194005  -1.3518297
  14  -1.2503482  -3.9194004   4.0945836
  14  -1.2503475   1.5270129  -1.3518296
  14  -1.2503472   1.5270130   4.0945836
  14   4.1960649  -3.9193995  -1.3518294
  14   4.1960652  -3.9193994   4.0945839
  14   4.1960659   1.5270139  -1.3518293
  14   4.1960662   1.5270140   4.0945840
  14  -2.6876797  -2.6777733   0.0340194
  14  -2.6876787   2.7686400   0.0340194
  14   2.7587337  -2.6777723   0.0340197
  14   2.7587347   2.7686410   0.0340198
  14  -1.4439883  -1.4111058  -3.8406208
  14  -1.4439880  -1.4111058   1.6057925
  14  -1.4439873   4.0353076  -3.8406207
  14  -1.4439870   4.0353076   1.6057925
  14   4.0024251  -1.4111048  -3.8406205
  14   4.0024254  -1.4111048   1.6057928
  14   4.0024261   4.0353086  -3.8406204
  14   4.0024264   4.0353086   1.6057928
ATOMS   12
  32  -0.1263131  -0.1606571  -0.0211074
  14  -4.1378392  -4.1116476  -4.2168916
  14  -4.1378389  -4.1116475   1.2295216
  14  -4.1378382   1.3347658  -4.2168916
  14  -4.1378379   1.3347659   1.2295217
  14   1.3085742  -4.1116466  -4.2168913
  14   1.3085745  -4.1116465   1.2295219
  14   1.3085752   1.3347668  -4.2168913
  14   1.3085755   1.3347669   1.2295220
  14   0.1610185  -2.6861279  -2.7183221
  14   0.1610188  -2.6861278   2.7280911
  14   0.1610195   2.7602855  -2.7183221
  14   0.1610198   2.7602856   2.7280912
  14  -3.9383740  -1.2890519  -1.3955953
  14  -3.9383737  -1.2890518   4.0508179
  14  -3.9383730   4.1573615  -1.3955952
  14  -3.9383727   4.1573616   4.0508180
  14   1.5080393  -1.2890509  -1.3955950
  14   1.5080396  -1.2890508   4.0508183
  14   1.5080403   4.1573625  -1.3955949
  14   1.5080406   4.1573626   4.0508183
  14  -2.6938878   0.2048052  -2.7184911
  14  -2.6938875   0.2048052   2.7279222
  14   2.7525256   0.2048062  -2.7184908
  14   2.7525259   0.2048062   2.7279225
  14  -1.2777285  -3.9498592  -1.3579941
  14  -1.2777282  -3.9498591   4.0884191
  14  -1.2777275   1.4965542  -1.3579941
  14  -1.2777272   1.4965543   4.0884192
  14   4.1686848  -3.9498582  -1.3579938
  14   4.1686851  -3.9498581   4.0884194
  14   4.1686858   1.4965552  -1.3579938
  14   4.1686861   1.4965553   4.0884195
  14  -2.6951070  -2.6872716   0.0269071
  14  -2.6951060   2.7591418   0.0269072
  14   2.7513064  -2.6872706   0.0269074
  14   2.7513074   2.7591428   0.0269075
  14  -1.4308869  -1.4048787  -3.8831234
  14  -1.4308866  -1.4048786   1.5632899
  14  -1.4308859   4.0415347  -3.8831233
  14  -1.4308856   4.0415348   1.5632900
  14   4.0155264  -1.4048777  -3.8831230
  14   4.0155268  -1.4048776   1.5632902
  14   4.0155274   4.0415357  -3.8831230
  14   4.0155278   4.0415358   1.5632903
ATOMS   13
  32  -0.0874066  -0.1111717  -0.0146061
  14  -4.1154326  -4.0973084  -4.1701350
  14  -4.1154323  -4.0973083   1.2762782
  14  -4.1154316   1.3491050  -4.1701350
  14  -4.1154313   1.3491051   1.2762783
  14   1.3309808  -4.0973074  -4.1701347
  14   1.3309811  -4.0973073   1.2762785
  14   1.3309818   1.3491060  -4.1701347
  14   1.3309821   1.3491061   1.2762786
  14   0.1114216  -2.6975488  -2.7198265
  14   0.1114219  -2.6975487   2.7265868
  14   0.1114226   2.7488646  -2.7198264
  14   0.1114229   2.7488647   2.7265868
  14  -3.9774071  -1.3174713  -1.3911971
  14  -3.9774068  -1.3174712   4.0552162
  14  -3.9774061   4.1289421  -1.3911970
  14  -3.9774058   4.1289422   4.0552163
  14   1.4690063  -1.3174703  -1.3911967
  14   1.4690066  -1.3174702   4.0552165
  14   1.4690073   4.1289431  -1.3911967
  14   1.4690076   4.1289432   4.0552166
  14  -2.7029185   0.1417211  -2.7199434
  14  -2.7029182   0.1417212   2.7264698
  14   2.7434948   0.1417221  -2.7199431
  14   2.7434951   0.1417222   2.7264702
  14  -1.3096360  -3.9853543  -1.3651779
  14  -1.3096357  -3.9853543   4.0812354
  14  -1.3096350   1.4610591  -1.3651778
  14  -1.3096347   1.4610591   4.0812355
  14   4.1367774  -3.9853533  -1.3651776
  14   4.1367777  -3.9853533   4.0812357
  14   4.1367784   1.4610601  -1.3651775
  14   4.1367787   1.4610601   4.0812358
  14  -2.7037623  -2.6983403   0.0186188
  14  -2.7037613   2.7480731   0.0186189
  14   2.7426511  -2.6983393   0.0186191
  14   2.7426521   2.7480741   0.0186192
  14  -1.4156192  -1.3976218  -3.9326538
  14  -1.4156189  -1.3976218   1.5137595
  14  -1.4156182   4.0487915  -3.9326537
  14  -1.4156179   4.0487916   1.5137596
  14   4.0307942  -1.3976208  -3.9326535
  14   4.0307945  -1.3976208   1.5137598
  14   4.0307952   4.0487925  -3.9326534
  14   4.0307955   4.0487926   1.5137599
ATOMS   14
  32  -0.0446800  -0.0568275  -0.0074664
  14  -4.0908259  -4.0815612  -4.1187876
  14  -4.0908256  -4.0815611   1.3276256
  14  -4.0908249   1.3648522  -4.1187876
  14  -4.0908246   1.3648522   1.3276257
  14   1.3555874  -4.0815602  -4.1187873
  14   1.3555878  -4.0815601   1.3276259
  14   1.3555884   1.3648532  -4.1187872
  14   1.3555888   1.3648532   1.3276260
  14   0.0569550  -2.7100911  -2.7214786
  14   0.0569554  -2.7100910   2.7249347
  14   0.0569560   2.7363223  -2.7214785
  14   0.0569564   2.7363224   2.7249348
  14  -4.0202726  -1.3486810  -1.3863669
  14  -4.0202723  -1.3486809   4.0600463
  14  -4.0202716   4.0977324  -1.3863668
  14  -4.0202713   4.0977324   4.0600464
  14   1.4261408  -1.3486800  -1.3863666
  14   1.4261411  -1.3486799   4.0600467
  14   1.4261418   4.0977334  -1.3863665
  14   1.4261421   4.0977334   4.0600467
  14  -2.7128360   0.0724432  -2.7215384
  14  -2.7128357   0.0724432   2.7248749
  14   2.7335774   0.0724442  -2.7215381
  14   2.7335777   0.0724442   2.7248752
  14  -1.3446762  -4.0243346  -1.3730670
  14  -1.3446759  -4.0243345   4.0733463
  14  -1.3446752   1.4220788  -1.3730669
  14  -1.3446749   1.4220789   4.0733464
  14   4.1017371  -4.0243336  -1.3730667
  14   4.1017374  -4.0243335   4.0733466
  14   4.1017381   1.4220798  -1.3730666
  14   4.1017384   1.4220799   4.0733467
  14  -2.7132675  -2.7104959   0.0095167
  14  -2.7132665   2.7359175   0.0095168
  14   2.7331459  -2.7104949   0.0095170
  14   2.7331469   2.7359185   0.0095171
  14  -1.3988524  -1.3896525  -3.9870474
  14  -1.3988521  -1.3896524   1.4593659
  14  -1.3988514   4.0567609  -3.9870473
  14  -1.3988511   4.0567609   1.4593660
  14   4.0475610  -1.3896515  -3.9870471
  14   4.0475613  -1.3896514   1.4593662
  14   4.0475620   4.0567619  -3.9870470
  14   4.0475623   4.0567619   1.4593663
ATOMS   15
  32  -0.0000007   0.0000004  -0.0000005
  14  -4.0650947  -4.0650944  -4.0650935
  14  -4.0650944  -4.0650943   1.3813197
  14  -4.0650937   1.3813190  -4.0650935
  14  -4.0650934   1.3813191   1.3813198
  14   1.3813187  -4.0650934  -4.0650932
  14   1.3813190  -4.0650933   1.3813200
  14   1.3813197   1.3813200  -4.0650932
  14   1.3813200   1.3813201   1.3813201
  14  -0.0000008  -2.7232066  -2.7232061
  14  -0.0000004  -2.7232065   2.7232072
  14   0.0000002   2.7232068  -2.7232060
  14   0.0000006   2.7232069   2.7232072
  14  -4.0650971  -1.3813171  -1.3813161
  14  -4.0650968  -1.3813170   4.0650972
  14  -4.0650961   4.0650963  -1.3813160
  14  -4.0650958   4.0650964   4.0650973
  14   1.3813162  -1.3813161  -1.3813157
  14   1.3813165  -1.3813160   4.0650975
  14   1.3813172   4.0650973  -1.3813157
  14   1.3813175   4.0650974   4.0650976
  14  -2.7232067  -0.0000009  -2.7232062
  14  -2.7232064  -0.0000009   2.7232070
  14   2.7232067   0.0000001  -2.7232059
  14   2.7232070   0.0000001   2.7232073
  14  -1.3813179  -4.0650963  -1.3813166
  14  -1.3813176  -4.0650962   4.0650967
  14  -1.3813169   1.3813171  -1.3813165
  14  -1.3813166   1.3813171   4.0650968
  14   4.0650954  -4.0650953  -1.3813163
  14   4.0650957  -4.0650952   4.0650970
  14   4.0650964   1.3813181  -1.3813162
  14   4.0650968   1.3813181   4.0650971
  14  -2.7232071  -2.7232070  -0.0000013
  14  -2.7232061   2.7232064  -0.0000013
  14   2.7232063  -2.7232060  -0.0000010
  14   2.7232073   2.7232074  -0.0000009
  14  -1.3813193  -1.3813190  -4.0439269
  14  -1.3813190  -1.3813189   1.4024864
  14  -1.3813183   4.0650944  -4.0439268
  14  -1.3813180   4.0650945   1.4024865
  14   4.0650940  -1.3813180  -4.0439266
  14   4.0650944  -1.3813179   1.4024867
  14   4.0650951   4.0650954  -4.0439265
  14   4.0650954   4.0650955   1.4024868
ATOMS   16
  32   0.0446786   0.0568283   0.0074654
  14  -4.0393635  -4.0486276  -4.0113994
  14  -4.0393632  -4.0486275   1.4350138
  14  -4.0393625   1.3977858  -4.0113994
  14  -4.0393622   1.3977859   1.4350139
  14   1.4070499  -4.0486266  -4.0113991
  14   1.4070502  -4.0486265   1.4350141
  14   1.4070509   1.3977868  -4.0113991
  14   1.4070512   1.3977869   1.4350142
  14  -0.0569566  -2.7363220  -2.7249337
  14  -0.0569563  -2.7363220   2.7214796
  14  -0.0569556   2.7100914  -2.7249336
  14  -0.0569553   2.7100914   2.7214797
  14  -4.1099217  -1.4139532  -1.3762652
  14  -4.1099214  -1.4139531   4.0701481
  14  -4.1099207   4.0324602  -1.3762651
  14  -4.1099204   4.0324603   4.0701482
  14   1.3364917  -1.4139522  -1.3762649
  14   1.3364920  -1.4139521   4.0701484
  14   1.3364927   4.0324612  -1.3762648
  14   1.3364930   4.0324613   4.0701485
  14  -2.7335774  -0.0724451  -2.7248741
  14  -2.7335770  -0.0724450   2.7215392
  14   2.7128360  -0.0724441  -2.7248738
  14   2.7128363  -0.0724440   2.7215395
  14  -1.4179596  -4.1058581  -1.3895662
  14  -1.4179593  -4.1058580   4.0568471
  14  -1.4179586   1.3405553  -1.3895661
  14  -1.4179583   1.3405554   4.0568471
  14   4.0284537  -4.1058571  -1.3895659
  14   4.0284540  -4.1058570   4.0568474
  14   4.0284547   1.3405563  -1.3895658
  14   4.0284551   1.3405564   4.0568474
  14  -2.7331467  -2.7359181  -0.0095194
  14  -2.7331457   2.7104953  -0.0095193
  14   2.7132666  -2.7359171  -0.0095191
  14   2.7132676   2.7104963  -0.0095190
  14  -1.3637862  -1.3729854  -4.1008064
  14  -1.3637859  -1.3729853   1.3456069
  14  -1.3637852   4.0734280  -4.1008063
  14  -1.3637849   4.0734281   1.3456070
  14   4.0826271  -1.3729844  -4.1008061
  14   4.0826274  -1.3729843   1.3456072
  14   4.0826281   4.0734290  -4.1008060
  14   4.0826284   4.0734291   1.3456073
ATOMS   17
  32   0.0874051   0.1111725   0.0146050
  14  -4.0147569  -4.0328804  -3.9600520
  14  -4.0147566  -4.0328803   1.4863612
  14  -4.0147559   1.4135330  -3.9600520
  14  -4.0147556   1.4135330   1.4863613