# --- AXSF block for ---- iev =    17  freq =     444.802326 cm-1
ANIMSTEPS   30
ATOMS    1
  32  -0.0119306   0.0106929  -0.0012086
  14  -4.0720304  -4.0496802  -4.0614397
  14  -4.0720300  -4.0496801   1.3849736
  14  -4.0720294   1.3967332  -4.0614396
  14  -4.0720290   1.3967333   1.3849737
  14   1.3743830  -4.0496792  -4.0614394
  14   1.3743833  -4.0496791   1.3849739
  14   1.3743840   1.3967342  -4.0614393
  14   1.3743843   1.3967343   1.3849740
  14   0.0635695  -2.6871389  -2.7272594
  14   0.0635698  -2.6871388   2.7191539
  14   0.0635705   2.7592745  -2.7272593
  14   0.0635708   2.7592746   2.7191540
  14  -4.0343143  -1.4133149  -1.4250984
  14  -4.0343140  -1.4133148   4.0213148
  14  -4.0343133   4.0330985  -1.4250984
  14  -4.0343130   4.0330986   4.0213149
  14   1.4120991  -1.4133138  -1.4250981
  14   1.4120994  -1.4133138   4.0213151
  14   1.4121001   4.0330995  -1.4250980
  14   1.4121004   4.0330996   4.0213152
  14  -2.7634202  -0.0570107  -2.7272944
  14  -2.7634199  -0.0570106   2.7191189
  14   2.6829931  -0.0570097  -2.7272941
  14   2.6829934  -0.0570096   2.7191192
  14  -1.3457362  -4.1019081  -1.3351196
  14  -1.3457359  -4.1019081   4.1112937
  14  -1.3457352   1.3445053  -1.3351195
  14  -1.3457349   1.3445053   4.1112938
  14   4.1006772  -4.1019071  -1.3351193
  14   4.1006775  -4.1019071   4.1112940
  14   4.1006782   1.3445063  -1.3351192
  14   4.1006785   1.3445063   4.1112941
  14  -2.7634055  -2.6871545   0.0064316
  14  -2.7634045   2.7592589   0.0064317
  14   2.6830079  -2.6871535   0.0064319
  14   2.6830089   2.7592599   0.0064320
  14  -1.3930857  -1.3706794  -4.0451649
  14  -1.3930854  -1.3706793   1.4012484
  14  -1.3930847   4.0757340  -4.0451648
  14  -1.3930844   4.0757341   1.4012485
  14   4.0533276  -1.3706784  -4.0451646
  14   4.0533279  -1.3706783   1.4012487
  14   4.0533286   4.0757350  -4.0451645
  14   4.0533289   4.0757351   1.4012488
ATOMS    2
  32  -0.0233391   0.0209181  -0.0023639
  14  -4.0786629  -4.0349397  -4.0579455
  14  -4.0786626  -4.0349396   1.3884677
  14  -4.0786619   1.4114737  -4.0579455
  14  -4.0786616   1.4114738   1.3884678
  14   1.3677505  -4.0349387  -4.0579452
  14   1.3677508  -4.0349386   1.3884680
  14   1.3677515   1.4114747  -4.0579451
  14   1.3677518   1.4114748   1.3884681
  14   0.1243614  -2.6526475  -2.7311355
  14   0.1243617  -2.6526474   2.7152778
  14   0.1243624   2.7937659  -2.7311354
  14   0.1243627   2.7937660   2.7152779
  14  -4.0048769  -1.4439141  -1.4669673
  14  -4.0048766  -1.4439141   3.9794460
  14  -4.0048759   4.0024993  -1.4669672
  14  -4.0048756   4.0024993   3.9794460
  14   1.4415365  -1.4439131  -1.4669670
  14   1.4415368  -1.4439131   3.9794463
  14   1.4415375   4.0025003  -1.4669669
  14   1.4415378   4.0025003   3.9794463
  14  -2.8018763  -0.1115288  -2.7312039
  14  -2.8018760  -0.1115287   2.7152093
  14   2.6445371  -0.1115278  -2.7312036
  14   2.6445374  -0.1115277   2.7152097
  14  -1.3117096  -4.1371111  -1.2909416
  14  -1.3117093  -4.1371110   4.1554717
  14  -1.3117086   1.3093023  -1.2909415
  14  -1.3117083   1.3093024   4.1554718
  14   4.1347038  -4.1371101  -1.2909413
  14   4.1347041  -4.1371100   4.1554720
  14   4.1347048   1.3093033  -1.2909412
  14   4.1347051   1.3093034   4.1554721
  14  -2.8018470  -2.6526777   0.0125834
  14  -2.8018460   2.7937357   0.0125835
  14   2.6445663  -2.6526767   0.0125837
  14   2.6445673   2.7937367   0.0125838
  14  -1.4043379  -1.3605048  -4.0463488
  14  -1.4043376  -1.3605047   1.4000645
  14  -1.4043369   4.0859086  -4.0463487
  14  -1.4043366   4.0859087   1.4000646
  14   4.0420755  -1.3605038  -4.0463485
  14   4.0420758  -1.3605037   1.4000648
  14   4.0420765   4.0859096  -4.0463484
  14   4.0420768   4.0859097   1.4000649
ATOMS    3
  32  -0.0337275   0.0302290  -0.0034159
  14  -4.0847024  -4.0215171  -4.0547638
  14  -4.0847021  -4.0215170   1.3916495
  14  -4.0847014   1.4248963  -4.0547637
  14  -4.0847011   1.4248964   1.3916496
  14   1.3617110  -4.0215161  -4.0547635
  14   1.3617113  -4.0215160   1.3916498
  14   1.3617120   1.4248973  -4.0547634
  14   1.3617123   1.4248974   1.3916499
  14   0.1797181  -2.6212399  -2.7346650
  14   0.1797184  -2.6212399   2.7117483
  14   0.1797191   2.8251735  -2.7346649
  14   0.1797194   2.8251735   2.7117483
  14  -3.9780713  -1.4717776  -1.5050928
  14  -3.9780710  -1.4717775   3.9413205
  14  -3.9780703   3.9746358  -1.5050927
  14  -3.9780700   3.9746359   3.9413205
  14   1.4683421  -1.4717766  -1.5050925
  14   1.4683424  -1.4717765   3.9413208
  14   1.4683431   3.9746368  -1.5050924
  14   1.4683434   3.9746369   3.9413208
  14  -2.8368941  -0.1611726  -2.7347639
  14  -2.8368938  -0.1611725   2.7116494
  14   2.6095193  -0.1611716  -2.7347636
  14   2.6095196  -0.1611715   2.7116497
  14  -1.2807252  -4.1691667  -1.2507134
  14  -1.2807249  -4.1691666   4.1956998
  14  -1.2807242   1.2772467  -1.2507134
  14  -1.2807239   1.2772468   4.1956999
  14   4.1656882  -4.1691657  -1.2507131
  14   4.1656885  -4.1691656   4.1957001
  14   4.1656892   1.2772477  -1.2507130
  14   4.1656895   1.2772478   4.1957002
  14  -2.8368516  -2.6212833   0.0181852
  14  -2.8368506   2.8251301   0.0181853
  14   2.6095618  -2.6212823   0.0181855
  14   2.6095628   2.8251311   0.0181856
  14  -1.4145841  -1.3512399  -4.0474268
  14  -1.4145838  -1.3512398   1.3989865
  14  -1.4145831   4.0951735  -4.0474267
  14  -1.4145827   4.0951736   1.3989865
  14   4.0318293  -1.3512389  -4.0474265
  14   4.0318296  -1.3512388   1.3989868
  14   4.0318303   4.0951745  -4.0474264
  14   4.0318306   4.0951746   1.3989868
ATOMS    4
  32  -0.0426420   0.0382189  -0.0043187
  14  -4.0898849  -4.0099990  -4.0520335
  14  -4.0898846  -4.0099989   1.3943798
  14  -4.0898839   1.4364144  -4.0520334
  14  -4.0898836   1.4364145   1.3943799
  14   1.3565284  -4.0099980  -4.0520332
  14   1.3565287  -4.0099979   1.3943801
  14   1.3565294   1.4364154  -4.0520331
  14   1.3565297   1.4364155   1.3943802
  14   0.2272202  -2.5942888  -2.7376938
  14   0.2272205  -2.5942887   2.7087195
  14   0.2272212   2.8521246  -2.7376937
  14   0.2272215   2.8521247   2.7087196
  14  -3.9550692  -1.4956875  -1.5378087
  14  -3.9550689  -1.4956875   3.9086046
  14  -3.9550682   3.9507259  -1.5378086
  14  -3.9550679   3.9507259   3.9086047
  14   1.4913442  -1.4956865  -1.5378084
  14   1.4913445  -1.4956865   3.9086049
  14   1.4913452   3.9507269  -1.5378083
  14   1.4913455   3.9507269   3.9086050
  14  -2.8669432  -0.2037725  -2.7378187
  14  -2.8669429  -0.2037724   2.7085945
  14   2.5794702  -0.2037715  -2.7378184
  14   2.5794705  -0.2037714   2.7085948
  14  -1.2541372  -4.1966739  -1.2161933
  14  -1.2541368  -4.1966738   4.2302200
  14  -1.2541362   1.2497395  -1.2161932
  14  -1.2541358   1.2497396   4.2302201
  14   4.1922762  -4.1966729  -1.2161930
  14   4.1922765  -4.1966728   4.2302203
  14   4.1922772   1.2497405  -1.2161929
  14   4.1922775   1.2497406   4.2302204
  14  -2.8668894  -2.5943435   0.0229922
  14  -2.8668884   2.8520699   0.0229922
  14   2.5795240  -2.5943425   0.0229925
  14   2.5795250   2.8520709   0.0229926
  14  -1.4233764  -1.3432896  -4.0483519
  14  -1.4233761  -1.3432895   1.3980614
  14  -1.4233754   4.1031238  -4.0483518
  14  -1.4233751   4.1031239   1.3980615
  14   4.0230370  -1.3432886  -4.0483516
  14   4.0230373  -1.3432885   1.3980617
  14   4.0230380   4.1031248  -4.0483515
  14   4.0230383   4.1031249   1.3980618
ATOMS    5
  32  -0.0496928   0.0445384  -0.0050327
  14  -4.0939841  -4.0008889  -4.0498740
  14  -4.0939837  -4.0008888   1.3965393
  14  -4.0939831   1.4455245  -4.0498739
  14  -4.0939827   1.4455246   1.3965394
  14   1.3524293  -4.0008879  -4.0498737
  14   1.3524296  -4.0008878   1.3965396
  14   1.3524303   1.4455255  -4.0498736
  14   1.3524306   1.4455256   1.3965397
  14   0.2647917  -2.5729719  -2.7400893
  14   0.2647920  -2.5729719   2.7063240
  14   0.2647927   2.8734415  -2.7400892
  14   0.2647930   2.8734415   2.7063240
  14  -3.9368759  -1.5145989  -1.5636851
  14  -3.9368756  -1.5145989   3.8827282
  14  -3.9368749   3.9318145  -1.5636850
  14  -3.9368746   3.9318145   3.8827283
  14   1.5095375  -1.5145979  -1.5636848
  14   1.5095378  -1.5145979   3.8827285
  14   1.5095385   3.9318155  -1.5636847
  14   1.5095388   3.9318155   3.8827286
  14  -2.8907104  -0.2374665  -2.7402349
  14  -2.8907100  -0.2374664   2.7061783
  14   2.5557030  -0.2374655  -2.7402346
  14   2.5557033  -0.2374654   2.7061786
  14  -1.2331075  -4.2184305  -1.1888898
  14  -1.2331072  -4.2184304   4.2575235
  14  -1.2331065   1.2279829  -1.1888897
  14  -1.2331062   1.2279829   4.2575236
  14   4.2133058  -4.2184295  -1.1888895
  14   4.2133061  -4.2184294   4.2575238
  14   4.2133068   1.2279839  -1.1888894
  14   4.2133071   1.2279839   4.2575239
  14  -2.8906476  -2.5730356   0.0267942
  14  -2.8906466   2.8733777   0.0267943
  14   2.5557658  -2.5730346   0.0267945
  14   2.5557668   2.8733787   0.0267946
  14  -1.4303306  -1.3370013  -4.0490836
  14  -1.4303303  -1.3370013   1.3973297
  14  -1.4303296   4.1094121  -4.0490835
  14  -1.4303293   4.1094121   1.3973298
  14   4.0160828  -1.3370003  -4.0490833
  14   4.0160831  -1.3370003   1.3973300
  14   4.0160838   4.1094131  -4.0490832
  14   4.0160841   4.1094131   1.3973301
ATOMS    6
  32  -0.0545719   0.0489114  -0.0055268
  14  -4.0968206  -3.9945848  -4.0483796
  14  -4.0968203  -3.9945847   1.3980336
  14  -4.0968196   1.4518286  -4.0483796
  14  -4.0968193   1.4518286   1.3980337
  14   1.3495928  -3.9945838  -4.0483793
  14   1.3495931  -3.9945837   1.3980339
  14   1.3495938   1.4518296  -4.0483793
  14   1.3495941   1.4518296   1.3980340
  14   0.2907905  -2.5582211  -2.7417470
  14   0.2907908  -2.5582210   2.7046663
  14   0.2907915   2.8881923  -2.7417469
  14   0.2907918   2.8881924   2.7046663
  14  -3.9242864  -1.5276853  -1.5815911
  14  -3.9242861  -1.5276852   3.8648222
  14  -3.9242854   3.9187281  -1.5815910
  14  -3.9242851   3.9187282   3.8648223
  14   1.5221270  -1.5276843  -1.5815907
  14   1.5221273  -1.5276842   3.8648225
  14   1.5221280   3.9187291  -1.5815907
  14   1.5221283   3.9187292   3.8648226
  14  -2.9071568  -0.2607822  -2.7419069
  14  -2.9071565  -0.2607821   2.7045064
  14   2.5392566  -0.2607812  -2.7419066
  14   2.5392569  -0.2607811   2.7045067
  14  -1.2185554  -4.2334857  -1.1699963
  14  -1.2185551  -4.2334856   4.2764170
  14  -1.2185544   1.2129277  -1.1699962
  14  -1.2185541   1.2129278   4.2764171
  14   4.2278579  -4.2334847  -1.1699959
  14   4.2278582  -4.2334846   4.2764173
  14   4.2278589   1.2129287  -1.1699959
  14   4.2278593   1.2129288   4.2764174
  14  -2.9070878  -2.5582910   0.0294251
  14  -2.9070868   2.8881224   0.0294252
  14   2.5393256  -2.5582900   0.0294254
  14   2.5393266   2.8881234   0.0294255
  14  -1.4351428  -1.3326500  -4.0495899
  14  -1.4351425  -1.3326499   1.3968234
  14  -1.4351418   4.1137634  -4.0495898
  14  -1.4351415   4.1137635   1.3968235
  14   4.0112706  -1.3326490  -4.0495896
  14   4.0112709  -1.3326489   1.3968237
  14   4.0112716   4.1137644  -4.0495895
  14   4.0112719   4.1137645   1.3968238
ATOMS    7
  32  -0.0570659   0.0511467  -0.0057793
  14  -4.0982705  -3.9913624  -4.0476158
  14  -4.0982702  -3.9913623   1.3987975
  14  -4.0982695   1.4550510  -4.0476157
  14  -4.0982692   1.4550511   1.3987976
  14   1.3481429  -3.9913614  -4.0476155
  14   1.3481432  -3.9913613   1.3987978
  14   1.3481439   1.4550520  -4.0476154
  14   1.3481442   1.4550521   1.3987979
  14   0.3040803  -2.5506809  -2.7425944
  14   0.3040806  -2.5506808   2.7038189
  14   0.3040813   2.8957325  -2.7425943
  14   0.3040816   2.8957326   2.7038190
  14  -3.9178510  -1.5343746  -1.5907441
  14  -3.9178507  -1.5343745   3.8556692
  14  -3.9178500   3.9120388  -1.5907440
  14  -3.9178497   3.9120388   3.8556693
  14   1.5285623  -1.5343736  -1.5907438
  14   1.5285627  -1.5343735   3.8556695
  14   1.5285633   3.9120398  -1.5907437
  14   1.5285637   3.9120398   3.8556696
  14  -2.9155637  -0.2727005  -2.7427616
  14  -2.9155634  -0.2727004   2.7036517
  14   2.5308497  -0.2726995  -2.7427613
  14   2.5308500  -0.2726994   2.7036520
  14  -1.2111168  -4.2411815  -1.1603384
  14  -1.2111165  -4.2411814   4.2860748
  14  -1.2111158   1.2052319  -1.1603384
  14  -1.2111155   1.2052320   4.2860749
  14   4.2352966  -4.2411805  -1.1603381
  14   4.2352969  -4.2411804   4.2860751
  14   4.2352976   1.2052329  -1.1603381
  14   4.2352979   1.2052330   4.2860752
  14  -2.9154915  -2.5507540   0.0307700
  14  -2.9154905   2.8956594   0.0307701
  14   2.5309219  -2.5507530   0.0307703
  14   2.5309229   2.8956604   0.0307704
  14  -1.4376026  -1.3304257  -4.0498487
  14  -1.4376023  -1.3304256   1.3965646
  14  -1.4376016   4.1159877  -4.0498486
  14  -1.4376013   4.1159878   1.3965647
  14   4.0088107  -1.3304247  -4.0498484
  14   4.0088110  -1.3304246   1.3965649
  14   4.0088117   4.1159887  -4.0498483
  14   4.0088120   4.1159888   1.3965650
ATOMS    8
  32  -0.0570659   0.0511467  -0.0057793
  14  -4.0982705  -3.9913624  -4.0476158
  14  -4.0982702  -3.9913623   1.3987975
  14  -4.0982695   1.4550510  -4.0476157
  14  -4.0982692   1.4550511   1.3987976
  14   1.3481429  -3.9913614  -4.0476155
  14   1.3481432  -3.9913613   1.3987978
  14   1.3481439   1.4550520  -4.0476154
  14   1.3481442   1.4550521   1.3987979
  14   0.3040803  -2.5506809  -2.7425944
  14   0.3040806  -2.5506808   2.7038189
  14   0.3040813   2.8957325  -2.7425943
  14   0.3040816   2.8957326   2.7038190
  14  -3.9178510  -1.5343746  -1.5907441
  14  -3.9178507  -1.5343745   3.8556692
  14  -3.9178500   3.9120388  -1.5907440
  14  -3.9178497   3.9120388   3.8556693
  14   1.5285623  -1.5343736  -1.5907438
  14   1.5285627  -1.5343735   3.8556695
  14   1.5285633   3.9120398  -1.5907437
  14   1.5285637   3.9120398   3.8556696
  14  -2.9155637  -0.2727005  -2.7427616
  14  -2.9155634  -0.2727004   2.7036517
  14   2.5308497  -0.2726995  -2.7427613
  14   2.5308500  -0.2726994   2.7036520
  14  -1.2111168  -4.2411815  -1.1603384
  14  -1.2111165  -4.2411814   4.2860748
  14  -1.2111158   1.2052319  -1.1603384
  14  -1.2111155   1.2052320   4.2860749
  14   4.2352966  -4.2411805  -1.1603381
  14   4.2352969  -4.2411804   4.2860751
  14   4.2352976   1.2052329  -1.1603381
  14   4.2352979   1.2052330   4.2860752
  14  -2.9154915  -2.5507540   0.0307700
  14  -2.9154905   2.8956594   0.0307701
  14   2.5309219  -2.5507530   0.0307703
  14   2.5309229   2.8956604   0.0307704
  14  -1.4376026  -1.3304257  -4.0498487
  14  -1.4376023  -1.3304256   1.3965646
  14  -1.4376016   4.1159877  -4.0498486
  14  -1.4376013   4.1159878   1.3965647
  14   4.0088107  -1.3304247  -4.0498484
  14   4.0088110  -1.3304246   1.3965649
  14   4.0088117   4.1159887  -4.0498483
  14   4.0088120   4.1159888   1.3965650
ATOMS    9
  32  -0.0545719   0.0489114  -0.0055268
  14  -4.0968206  -3.9945848  -4.0483796
  14  -4.0968203  -3.9945847   1.3980336
  14  -4.0968196   1.4518286  -4.0483796
  14  -4.0968193   1.4518286   1.3980337
  14   1.3495928  -3.9945838  -4.0483793
  14   1.3495931  -3.9945837   1.3980339
  14   1.3495938   1.4518296  -4.0483793
  14   1.3495941   1.4518296   1.3980340
  14   0.2907905  -2.5582211  -2.7417470
  14   0.2907908  -2.5582210   2.7046663
  14   0.2907915   2.8881923  -2.7417469
  14   0.2907918   2.8881924   2.7046663
  14  -3.9242864  -1.5276853  -1.5815911
  14  -3.9242861  -1.5276852   3.8648222
  14  -3.9242854   3.9187281  -1.5815910
  14  -3.9242851   3.9187282   3.8648223
  14   1.5221270  -1.5276843  -1.5815907
  14   1.5221273  -1.5276842   3.8648225
  14   1.5221280   3.9187291  -1.5815907
  14   1.5221283   3.9187292   3.8648226
  14  -2.9071568  -0.2607822  -2.7419069
  14  -2.9071565  -0.2607821   2.7045064
  14   2.5392566  -0.2607812  -2.7419066
  14   2.5392569  -0.2607811   2.7045067
  14  -1.2185554  -4.2334857  -1.1699963
  14  -1.2185551  -4.2334856   4.2764170
  14  -1.2185544   1.2129277  -1.1699962
  14  -1.2185541   1.2129278   4.2764171
  14   4.2278579  -4.2334847  -1.1699959
  14   4.2278582  -4.2334846   4.2764173
  14   4.2278589   1.2129287  -1.1699959
  14   4.2278593   1.2129288   4.2764174
  14  -2.9070878  -2.5582910   0.0294251
  14  -2.9070868   2.8881224   0.0294252
  14   2.5393256  -2.5582900   0.0294254
  14   2.5393266   2.8881234   0.0294255
  14  -1.4351428  -1.3326500  -4.0495899
  14  -1.4351425  -1.3326499   1.3968234
  14  -1.4351418   4.1137634  -4.0495898
  14  -1.4351415   4.1137635   1.3968235
  14   4.0112706  -1.3326490  -4.0495896
  14   4.0112709  -1.3326489   1.3968237
  14   4.0112716   4.1137644  -4.0495895
  14   4.0112719   4.1137645   1.3968238
ATOMS   10
  32  -0.0496928   0.0445384  -0.0050327
  14  -4.0939841  -4.0008889  -4.0498740
  14  -4.0939837  -4.0008888   1.3965393
  14  -4.0939831   1.4455245  -4.0498739
  14  -4.0939827   1.4455246   1.3965394
  14   1.3524293  -4.0008879  -4.0498737
  14   1.3524296  -4.0008878   1.3965396
  14   1.3524303   1.4455255  -4.0498736
  14   1.3524306   1.4455256   1.3965397
  14   0.2647917  -2.5729719  -2.7400893
  14   0.2647920  -2.5729719   2.7063240
  14   0.2647927   2.8734415  -2.7400892
  14   0.2647930   2.8734415   2.7063240
  14  -3.9368759  -1.5145989  -1.5636851
  14  -3.9368756  -1.5145989   3.8827282
  14  -3.9368749   3.9318145  -1.5636850
  14  -3.9368746   3.9318145   3.8827283
  14   1.5095375  -1.5145979  -1.5636848
  14   1.5095378  -1.5145979   3.8827285
  14   1.5095385   3.9318155  -1.5636847
  14   1.5095388   3.9318155   3.8827286
  14  -2.8907104  -0.2374665  -2.7402349
  14  -2.8907100  -0.2374664   2.7061783
  14   2.5557030  -0.2374655  -2.7402346
  14   2.5557033  -0.2374654   2.7061786
  14  -1.2331075  -4.2184305  -1.1888898
  14  -1.2331072  -4.2184304   4.2575235
  14  -1.2331065   1.2279829  -1.1888897
  14  -1.2331062   1.2279829   4.2575236
  14   4.2133058  -4.2184295  -1.1888895
  14   4.2133061  -4.2184294   4.2575238
  14   4.2133068   1.2279839  -1.1888894
  14   4.2133071   1.2279839   4.2575239
  14  -2.8906476  -2.5730356   0.0267942
  14  -2.8906466   2.8733777   0.0267943
  14   2.5557658  -2.5730346   0.0267945
  14   2.5557668   2.8733787   0.0267946
  14  -1.4303306  -1.3370013  -4.0490836
  14  -1.4303303  -1.3370013   1.3973297
  14  -1.4303296   4.1094121  -4.0490835
  14  -1.4303293   4.1094121   1.3973298
  14   4.0160828  -1.3370003  -4.0490833
  14   4.0160831  -1.3370003   1.3973300
  14   4.0160838   4.1094131  -4.0490832
  14   4.0160841   4.1094131   1.3973301
ATOMS   11
  32  -0.0426420   0.0382189  -0.0043187
  14  -4.0898849  -4.0099990  -4.0520335
  14  -4.0898846  -4.0099989   1.3943798
  14  -4.0898839   1.4364144  -4.0520334
  14  -4.0898836   1.4364145   1.3943799
  14   1.3565284  -4.0099980  -4.0520332
  14   1.3565287  -4.0099979   1.3943801
  14   1.3565294   1.4364154  -4.0520331
  14   1.3565297   1.4364155   1.3943802
  14   0.2272202  -2.5942888  -2.7376938
  14   0.2272205  -2.5942887   2.7087195
  14   0.2272212   2.8521246  -2.7376937
  14   0.2272215   2.8521247   2.7087196
  14  -3.9550692  -1.4956875  -1.5378087
  14  -3.9550689  -1.4956875   3.9086046
  14  -3.9550682   3.9507259  -1.5378086
  14  -3.9550679   3.9507259   3.9086047
  14   1.4913442  -1.4956865  -1.5378084
  14   1.4913445  -1.4956865   3.9086049
  14   1.4913452   3.9507269  -1.5378083
  14   1.4913455   3.9507269   3.9086050
  14  -2.8669432  -0.2037725  -2.7378187
  14  -2.8669429  -0.2037724   2.7085945
  14   2.5794702  -0.2037715  -2.7378184
  14   2.5794705  -0.2037714   2.7085948
  14  -1.2541372  -4.1966739  -1.2161933
  14  -1.2541368  -4.1966738   4.2302200
  14  -1.2541362   1.2497395  -1.2161932
  14  -1.2541358   1.2497396   4.2302201
  14   4.1922762  -4.1966729  -1.2161930
  14   4.1922765  -4.1966728   4.2302203
  14   4.1922772   1.2497405  -1.2161929
  14   4.1922775   1.2497406   4.2302204
  14  -2.8668894  -2.5943435   0.0229922
  14  -2.8668884   2.8520699   0.0229922
  14   2.5795240  -2.5943425   0.0229925
  14   2.5795250   2.8520709   0.0229926
  14  -1.4233764  -1.3432896  -4.0483519
  14  -1.4233761  -1.3432895   1.3980614
  14  -1.4233754   4.1031238  -4.0483518
  14  -1.4233751   4.1031239   1.3980615
  14   4.0230370  -1.3432886  -4.0483516
  14   4.0230373  -1.3432885   1.3980617
  14   4.0230380   4.1031248  -4.0483515
  14   4.0230383   4.1031249   1.3980618
ATOMS   12
  32  -0.0337275   0.0302290  -0.0034159
  14  -4.0847024  -4.0215171  -4.0547638
  14  -4.0847021  -4.0215170   1.3916495
  14  -4.0847014   1.4248963  -4.0547637
  14  -4.0847011   1.4248964   1.3916496
  14   1.3617110  -4.0215161  -4.0547635
  14   1.3617113  -4.0215160   1.3916498
  14   1.3617120   1.4248973  -4.0547634
  14   1.3617123   1.4248974   1.3916499
  14   0.1797181  -2.6212399  -2.7346650
  14   0.1797184  -2.6212399   2.7117483
  14   0.1797191   2.8251735  -2.7346649
  14   0.1797194   2.8251735   2.7117483
  14  -3.9780713  -1.4717776  -1.5050928
  14  -3.9780710  -1.4717775   3.9413205
  14  -3.9780703   3.9746358  -1.5050927
  14  -3.9780700   3.9746359   3.9413205
  14   1.4683421  -1.4717766  -1.5050925
  14   1.4683424  -1.4717765   3.9413208
  14   1.4683431   3.9746368  -1.5050924
  14   1.4683434   3.9746369   3.9413208
  14  -2.8368941  -0.1611726  -2.7347639
  14  -2.8368938  -0.1611725   2.7116494
  14   2.6095193  -0.1611716  -2.7347636
  14   2.6095196  -0.1611715   2.7116497
  14  -1.2807252  -4.1691667  -1.2507134
  14  -1.2807249  -4.1691666   4.1956998
  14  -1.2807242   1.2772467  -1.2507134
  14  -1.2807239   1.2772468   4.1956999
  14   4.1656882  -4.1691657  -1.2507131
  14   4.1656885  -4.1691656   4.1957001
  14   4.1656892   1.2772477  -1.2507130
  14   4.1656895   1.2772478   4.1957002
  14  -2.8368516  -2.6212833   0.0181852
  14  -2.8368506   2.8251301   0.0181853
  14   2.6095618  -2.6212823   0.0181855
  14   2.6095628   2.8251311   0.0181856
  14  -1.4145841  -1.3512399  -4.0474268
  14  -1.4145838  -1.3512398   1.3989865
  14  -1.4145831   4.0951735  -4.0474267
  14  -1.4145827   4.0951736   1.3989865
  14   4.0318293  -1.3512389  -4.0474265
  14   4.0318296  -1.3512388   1.3989868
  14   4.0318303   4.0951745  -4.0474264
  14   4.0318306   4.0951746   1.3989868
ATOMS   13
  32  -0.0233391   0.0209181  -0.0023639
  14  -4.0786629  -4.0349397  -4.0579455
  14  -4.0786626  -4.0349396   1.3884677
  14  -4.0786619   1.4114737  -4.0579455
  14  -4.0786616   1.4114738   1.3884678
  14   1.3677505  -4.0349387  -4.0579452
  14   1.3677508  -4.0349386   1.3884680
  14   1.3677515   1.4114747  -4.0579451
  14   1.3677518   1.4114748   1.3884681
  14   0.1243614  -2.6526475  -2.7311355
  14   0.1243617  -2.6526474   2.7152778
  14   0.1243624   2.7937659  -2.7311354
  14   0.1243627   2.7937660   2.7152779
  14  -4.0048769  -1.4439141  -1.4669673
  14  -4.0048766  -1.4439141   3.9794460
  14  -4.0048759   4.0024993  -1.4669672
  14  -4.0048756   4.0024993   3.9794460
  14   1.4415365  -1.4439131  -1.4669670
  14   1.4415368  -1.4439131   3.9794463
  14   1.4415375   4.0025003  -1.4669669
  14   1.4415378   4.0025003   3.9794463
  14  -2.8018763  -0.1115288  -2.7312039
  14  -2.8018760  -0.1115287   2.7152093
  14   2.6445371  -0.1115278  -2.7312036
  14   2.6445374  -0.1115277   2.7152097
  14  -1.3117096  -4.1371111  -1.2909416
  14  -1.3117093  -4.1371110   4.1554717
  14  -1.3117086   1.3093023  -1.2909415
  14  -1.3117083   1.3093024   4.1554718
  14   4.1347038  -4.1371101  -1.2909413
  14   4.1347041  -4.1371100   4.1554720
  14   4.1347048   1.3093033  -1.2909412
  14   4.1347051   1.3093034   4.1554721
  14  -2.8018470  -2.6526777   0.0125834
  14  -2.8018460   2.7937357   0.0125835
  14   2.6445663  -2.6526767   0.0125837
  14   2.6445673   2.7937367   0.0125838
  14  -1.4043379  -1.3605048  -4.0463488
  14  -1.4043376  -1.3605047   1.4000645
  14  -1.4043369   4.0859086  -4.0463487
  14  -1.4043366   4.0859087   1.4000646
  14   4.0420755  -1.3605038  -4.0463485
  14   4.0420758  -1.3605037   1.4000648
  14   4.0420765   4.0859096  -4.0463484
  14   4.0420768   4.0859097   1.4000649
ATOMS   14
  32  -0.0119306   0.0106929  -0.0012086
  14  -4.0720304  -4.0496802  -4.0614397
  14  -4.0720300  -4.0496801   1.3849736
  14  -4.0720294   1.3967332  -4.0614396
  14  -4.0720290   1.3967333   1.3849737
  14   1.3743830  -4.0496792  -4.0614394
  14   1.3743833  -4.0496791   1.3849739
  14   1.3743840   1.3967342  -4.0614393
  14   1.3743843   1.3967343   1.3849740
  14   0.0635695  -2.6871389  -2.7272594
  14   0.0635698  -2.6871388   2.7191539
  14   0.0635705   2.7592745  -2.7272593
  14   0.0635708   2.7592746   2.7191540
  14  -4.0343143  -1.4133149  -1.4250984
  14  -4.0343140  -1.4133148   4.0213148
  14  -4.0343133   4.0330985  -1.4250984
  14  -4.0343130   4.0330986   4.0213149
  14   1.4120991  -1.4133138  -1.4250981
  14   1.4120994  -1.4133138   4.0213151
  14   1.4121001   4.0330995  -1.4250980
  14   1.4121004   4.0330996   4.0213152
  14  -2.7634202  -0.0570107  -2.7272944
  14  -2.7634199  -0.0570106   2.7191189
  14   2.6829931  -0.0570097  -2.7272941
  14   2.6829934  -0.0570096   2.7191192
  14  -1.3457362  -4.1019081  -1.3351196
  14  -1.3457359  -4.1019081   4.1112937
  14  -1.3457352   1.3445053  -1.3351195
  14  -1.3457349   1.3445053   4.1112938
  14   4.1006772  -4.1019071  -1.3351193
  14   4.1006775  -4.1019071   4.1112940
  14   4.1006782   1.3445063  -1.3351192
  14   4.1006785   1.3445063   4.1112941
  14  -2.7634055  -2.6871545   0.0064316
  14  -2.7634045   2.7592589   0.0064317
  14   2.6830079  -2.6871535   0.0064319
  14   2.6830089   2.7592599   0.0064320
  14  -1.3930857  -1.3706794  -4.0451649
  14  -1.3930854  -1.3706793   1.4012484
  14  -1.3930847   4.0757340  -4.0451648
  14  -1.3930844   4.0757341   1.4012485
  14   4.0533276  -1.3706784  -4.0451646
  14   4.0533279  -1.3706783   1.4012487
  14   4.0533286   4.0757350  -4.0451645
  14   4.0533289   4.0757351   1.4012488
ATOMS   15
  32  -0.0000007   0.0000004  -0.0000005
  14  -4.0650947  -4.0650944  -4.0650935
  14  -4.0650944  -4.0650943   1.3813197
  14  -4.0650937   1.3813190  -4.0650935
  14  -4.0650934   1.3813191   1.3813198
  14   1.3813187  -4.0650934  -4.0650932
  14   1.3813190  -4.0650933   1.3813200
  14   1.3813197   1.3813200  -4.0650932
  14   1.3813200   1.3813201   1.3813201
  14  -0.0000008  -2.7232066  -2.7232061
  14  -0.0000004  -2.7232065   2.7232072
  14   0.0000002   2.7232068  -2.7232060
  14   0.0000006   2.7232069   2.7232072
  14  -4.0650971  -1.3813171  -1.3813161
  14  -4.0650968  -1.3813170   4.0650972
  14  -4.0650961   4.0650963  -1.3813160
  14  -4.0650958   4.0650964   4.0650973
  14   1.3813162  -1.3813161  -1.3813157
  14   1.3813165  -1.3813160   4.0650975
  14   1.3813172   4.0650973  -1.3813157
  14   1.3813175   4.0650974   4.0650976
  14  -2.7232067  -0.0000010  -2.7232062
  14  -2.7232064  -0.0000009   2.7232070
  14   2.7232067   0.0000000  -2.7232059
  14   2.7232070   0.0000001   2.7232073
  14  -1.3813179  -4.0650963  -1.3813166
  14  -1.3813176  -4.0650962   4.0650967
  14  -1.3813169   1.3813171  -1.3813165
  14  -1.3813166   1.3813171   4.0650968
  14   4.0650954  -4.0650953  -1.3813163
  14   4.0650957  -4.0650952   4.0650970
  14   4.0650964   1.3813181  -1.3813162
  14   4.0650968   1.3813181   4.0650971
  14  -2.7232071  -2.7232070  -0.0000013
  14  -2.7232061   2.7232064  -0.0000013
  14   2.7232063  -2.7232060  -0.0000010
  14   2.7232073   2.7232074  -0.0000009
  14  -1.3813193  -1.3813190  -4.0439269
  14  -1.3813190  -1.3813189   1.4024864
  14  -1.3813183   4.0650944  -4.0439268
  14  -1.3813180   4.0650945   1.4024865
  14   4.0650940  -1.3813180  -4.0439266
  14   4.0650944  -1.3813179   1.4024867
  14   4.0650951   4.0650954  -4.0439265
  14   4.0650954   4.0650955   1.4024868
ATOMS   16
  32   0.0119291  -0.0106921   0.0012076
  14  -4.0581591  -4.0805086  -4.0687474
  14  -4.0581588  -4.0805085   1.3776659
  14  -4.0581581   1.3659048  -4.0687473
  14  -4.0581578   1.3659049   1.3776660
  14   1.3882543  -4.0805076  -4.0687471
  14   1.3882546  -4.0805075   1.3776662
  14   1.3882553   1.3659058  -4.0687470
  14   1.3882556   1.3659059   1.3776663
  14  -0.0635710  -2.7592742  -2.7191529
  14  -0.0635707  -2.7592742   2.7272604
  14  -0.0635700   2.6871392  -2.7191528
  14  -0.0635697   2.6871392   2.7272605
  14  -4.0958800  -1.3493194  -1.3375337
  14  -4.0958797  -1.3493193   4.1088796
  14  -4.0958790   4.0970940  -1.3375336
  14  -4.0958787   4.0970941   4.1088797
  14   1.3505334  -1.3493184  -1.3375334
  14   1.3505337  -1.3493183   4.1088799
  14   1.3505344   4.0970950  -1.3375333
  14   1.3505347   4.0970951   4.1088800
  14  -2.6829931   0.0570088  -2.7191181
  14  -2.6829928   0.0570089   2.7272952
  14   2.7634203   0.0570098  -2.7191178
  14   2.7634206   0.0570099   2.7272955
  14  -1.4168997  -4.0282845  -1.4275136
  14  -1.4168994  -4.0282844   4.0188997
  14  -1.4168987   1.4181289  -1.4275135
  14  -1.4168984   1.4181290   4.0188997
  14   4.0295137  -4.0282835  -1.4275133
  14   4.0295140  -4.0282834   4.0189000
  14   4.0295147   1.4181299  -1.4275132
  14   4.0295150   1.4181300   4.0189001
  14  -2.6830087  -2.7592595  -0.0064343
  14  -2.6830077   2.6871539  -0.0064342
  14   2.7634046  -2.7592585  -0.0064340
  14   2.7634056   2.6871549  -0.0064339
  14  -1.3695529  -1.3919585  -4.0426889
  14  -1.3695526  -1.3919585   1.4037244
  14  -1.3695519   4.0544548  -4.0426888
  14  -1.3695516   4.0544549   1.4037245
  14   4.0768605  -1.3919575  -4.0426886
  14   4.0768608  -1.3919575   1.4037247
  14   4.0768615   4.0544558  -4.0426885
  14   4.0768618   4.0544559   1.4037248
ATOMS   17
  32   0.0233376  -0.0209173   0.0023629
  14  -4.0515266  -4.0952491  -4.0722415
  14  -4.0515263  -4.0952490   1.3741717
  14  -4.0515256   1.3511643  -4.0722415
  14  -4.0515253   1.3511644   1.3741718