# --- AXSF block for ---- iev =    12  freq =     341.549435 cm-1
ANIMSTEPS   30
ATOMS    1
  32  -0.0392393  -0.0487761  -0.0050024
  14  -4.0238514  -4.0249566  -4.0198560
  14  -4.0238511  -4.0249565   1.4265572
  14  -4.0238504   1.4214568  -4.0198560
  14  -4.0238501   1.4214569   1.4265573
  14   1.4225620  -4.0249556  -4.0198557
  14   1.4225623  -4.0249555   1.4265575
  14   1.4225630   1.4214578  -4.0198557
  14   1.4225633   1.4214579   1.4265576
  14  -0.0373747  -2.6736361  -2.7181189
  14  -0.0373744  -2.6736360   2.7282944
  14  -0.0373737   2.7727773  -2.7181188
  14  -0.0373734   2.7727773   2.7282944
  14  -4.0768033  -1.3798200  -1.3747453
  14  -4.0768030  -1.3798199   4.0716680
  14  -4.0768023   4.0665934  -1.3747452
  14  -4.0768020   4.0665934   4.0716680
  14   1.3696101  -1.3798190  -1.3747450
  14   1.3696104  -1.3798189   4.0716683
  14   1.3696111   4.0665944  -1.3747449
  14   1.3696114   4.0665944   4.0716683
  14  -2.6833185  -0.0464509  -2.7181262
  14  -2.6833182  -0.0464509   2.7282871
  14   2.7630949  -0.0464499  -2.7181259
  14   2.7630952  -0.0464499   2.7282874
  14  -1.3881080  -4.0685288  -1.3841357
  14  -1.3881077  -4.0685287   4.0622776
  14  -1.3881070   1.3778846  -1.3841356
  14  -1.3881067   1.3778847   4.0622777
  14   4.0583054  -4.0685278  -1.3841354
  14   4.0583057  -4.0685277   4.0622779
  14   4.0583064   1.3778856  -1.3841353
  14   4.0583067   1.3778857   4.0622780
  14  -2.6833725  -2.6736901  -0.0047694
  14  -2.6833715   2.7727233  -0.0047693
  14   2.7630409  -2.6736891  -0.0047691
  14   2.7630419   2.7727243  -0.0047690
  14  -1.3449974  -1.3461026  -4.0853842
  14  -1.3449971  -1.3461025   1.3610291
  14  -1.3449964   4.1003108  -4.0853841
  14  -1.3449961   4.1003109   1.3610292
  14   4.1014160  -1.3461016  -4.0853839
  14   4.1014163  -1.3461015   1.3610294
  14   4.1014170   4.1003118  -4.0853838
  14   4.1014173   4.1003119   1.3610295
ATOMS    2
  32  -0.0767630  -0.0954209  -0.0097856
  14  -3.9844106  -3.9865730  -3.9765957
  14  -3.9844103  -3.9865730   1.4698176
  14  -3.9844096   1.4598404  -3.9765956
  14  -3.9844093   1.4598404   1.4698177
  14   1.4620028  -3.9865720  -3.9765954
  14   1.4620031  -3.9865720   1.4698179
  14   1.4620038   1.4598414  -3.9765953
  14   1.4620041   1.4598414   1.4698180
  14  -0.0731153  -2.6262321  -2.7132540
  14  -0.0731150  -2.6262321   2.7331592
  14  -0.0731143   2.8201812  -2.7132540
  14  -0.0731140   2.8201813   2.7331593
  14  -4.0879978  -1.3783884  -1.3684617
  14  -4.0879975  -1.3783883   4.0779516
  14  -4.0879968   4.0680250  -1.3684616
  14  -4.0879965   4.0680251   4.0779516
  14   1.3584156  -1.3783873  -1.3684614
  14   1.3584159  -1.3783873   4.0779519
  14   1.3584166   4.0680260  -1.3684613
  14   1.3584169   4.0680261   4.0779519
  14  -2.6451737  -0.0908709  -2.7132681
  14  -2.6451734  -0.0908708   2.7331452
  14   2.8012397  -0.0908699  -2.7132678
  14   2.8012400  -0.0908698   2.7331455
  14  -1.3946013  -4.0718113  -1.3868316
  14  -1.3946010  -4.0718112   4.0595817
  14  -1.3946003   1.3746021  -1.3868315
  14  -1.3946000   1.3746022   4.0595818
  14   4.0518120  -4.0718103  -1.3868313
  14   4.0518123  -4.0718102   4.0595820
  14   4.0518130   1.3746031  -1.3868312
  14   4.0518133   1.3746032   4.0595821
  14  -2.6452788  -2.6263372  -0.0093290
  14  -2.6452778   2.8200761  -0.0093289
  14   2.8011346  -2.6263362  -0.0093287
  14   2.8011356   2.8200771  -0.0093286
  14  -1.3102629  -1.3124253  -4.1250296
  14  -1.3102626  -1.3124252   1.3213837
  14  -1.3102619   4.1339881  -4.1250295
  14  -1.3102616   4.1339882   1.3213838
  14   4.1361505  -1.3124243  -4.1250293
  14   4.1361508  -1.3124242   1.3213840
  14   4.1361515   4.1339891  -4.1250292
  14   4.1361518   4.1339892   1.3213841
ATOMS    3
  32  -0.1109318  -0.1378953  -0.0141413
  14  -3.9484961  -3.9516212  -3.9372031
  14  -3.9484958  -3.9516211   1.5092102
  14  -3.9484951   1.4947922  -3.9372030
  14  -3.9484948   1.4947922   1.5092103
  14   1.4979173  -3.9516202  -3.9372027
  14   1.4979176  -3.9516201   1.5092105
  14   1.4979183   1.4947932  -3.9372027
  14   1.4979186   1.4947932   1.5092106
  14  -0.1056604  -2.5830664  -2.7088241
  14  -0.1056601  -2.5830663   2.7375892
  14  -0.1056594   2.8633470  -2.7088240
  14  -0.1056591   2.8633470   2.7375892
  14  -4.0981914  -1.3770847  -1.3627399
  14  -4.0981911  -1.3770846   4.0836733
  14  -4.0981904   4.0693287  -1.3627399
  14  -4.0981901   4.0693288   4.0836734
  14   1.3482220  -1.3770837  -1.3627396
  14   1.3482223  -1.3770836   4.0836736
  14   1.3482230   4.0693297  -1.3627395
  14   1.3482233   4.0693298   4.0836737
  14  -2.6104392  -0.1313193  -2.7088444
  14  -2.6104389  -0.1313192   2.7375689
  14   2.8359741  -0.1313183  -2.7088441
  14   2.8359745  -0.1313182   2.7375692
  14  -1.4005141  -4.0748003  -1.3892864
  14  -1.4005138  -4.0748002   4.0571268
  14  -1.4005131   1.3716131  -1.3892863
  14  -1.4005128   1.3716132   4.0571269
  14   4.0458993  -4.0747993  -1.3892861
  14   4.0458996  -4.0747992   4.0571272
  14   4.0459003   1.3716141  -1.3892860
  14   4.0459006   1.3716142   4.0571272
  14  -2.6105909  -2.5832181  -0.0134810
  14  -2.6105899   2.8631953  -0.0134809
  14   2.8358225  -2.5832171  -0.0134807
  14   2.8358235   2.8631963  -0.0134806
  14  -1.2786339  -1.2817590  -4.1611304
  14  -1.2786336  -1.2817589   1.2852829
  14  -1.2786329   4.1646544  -4.1611303
  14  -1.2786326   4.1646545   1.2852829
  14   4.1677795  -1.2817580  -4.1611301
  14   4.1677798  -1.2817579   1.2852832
  14   4.1677805   4.1646554  -4.1611300
  14   4.1677808   4.1646555   1.2852832
ATOMS    4
  32  -0.1402524  -0.1743429  -0.0178788
  14  -3.9176775  -3.9216287  -3.9033999
  14  -3.9176772  -3.9216286   1.5430134
  14  -3.9176765   1.5247847  -3.9033998
  14  -3.9176762   1.5247847   1.5430135
  14   1.5287358  -3.9216277  -3.9033996
  14   1.5287362  -3.9216276   1.5430137
  14   1.5287368   1.5247857  -3.9033995
  14   1.5287372   1.5247857   1.5430138
  14  -0.1335876  -2.5460255  -2.7050227
  14  -0.1335873  -2.5460254   2.7413905
  14  -0.1335866   2.9003879  -2.7050227
  14  -0.1335863   2.9003880   2.7413906
  14  -4.1069386  -1.3759660  -1.3578300
  14  -4.1069383  -1.3759659   4.0885833
  14  -4.1069376   4.0704474  -1.3578299
  14  -4.1069373   4.0704475   4.0885833
  14   1.3394747  -1.3759650  -1.3578297
  14   1.3394750  -1.3759649   4.0885836
  14   1.3394757   4.0704484  -1.3578296
  14   1.3394760   4.0704485   4.0885836
  14  -2.5806333  -0.1660285  -2.7050484
  14  -2.5806330  -0.1660284   2.7413649
  14   2.8657801  -0.1660275  -2.7050481
  14   2.8657804  -0.1660274   2.7413652
  14  -1.4055879  -4.0773652  -1.3913930
  14  -1.4055876  -4.0773651   4.0550203
  14  -1.4055869   1.3690482  -1.3913929
  14  -1.4055866   1.3690483   4.0550204
  14   4.0408255  -4.0773642  -1.3913927
  14   4.0408258  -4.0773641   4.0550206
  14   4.0408265   1.3690492  -1.3913926
  14   4.0408268   1.3690493   4.0550207
  14  -2.5808249  -2.5462171  -0.0170439
  14  -2.5808239   2.9001962  -0.0170438
  14   2.8655884  -2.5462161  -0.0170436
  14   2.8655894   2.9001972  -0.0170435
  14  -1.2514928  -1.2554439  -4.1921089
  14  -1.2514925  -1.2554439   1.2543044
  14  -1.2514918   4.1909695  -4.1921088
  14  -1.2514915   4.1909695   1.2543045
  14   4.1949206  -1.2554429  -4.1921086
  14   4.1949209  -1.2554429   1.2543047
  14   4.1949216   4.1909705  -4.1921085
  14   4.1949219   4.1909705   1.2543048
ATOMS    5
  32  -0.1634433  -0.2031710  -0.0208351
  14  -3.8933018  -3.8979064  -3.8766635
  14  -3.8933015  -3.8979063   1.5697498
  14  -3.8933008   1.5485070  -3.8766634
  14  -3.8933005   1.5485071   1.5697498
  14   1.5531116  -3.8979054  -3.8766632
  14   1.5531119  -3.8979053   1.5697501
  14   1.5531126   1.5485080  -3.8766631
  14   1.5531129   1.5485081   1.5697502
  14  -0.1556765  -2.5167282  -2.7020161
  14  -0.1556762  -2.5167282   2.7443972
  14  -0.1556755   2.9296852  -2.7020160
  14  -0.1556752   2.9296852   2.7443973
  14  -4.1138572  -1.3750812  -1.3539465
  14  -4.1138569  -1.3750811   4.0924667
  14  -4.1138562   4.0713322  -1.3539465
  14  -4.1138559   4.0713323   4.0924668
  14   1.3325562  -1.3750802  -1.3539462
  14   1.3325565  -1.3750801   4.0924670
  14   1.3325572   4.0713332  -1.3539462
  14   1.3325575   4.0713333   4.0924671
  14  -2.5570585  -0.1934815  -2.7020459
  14  -2.5570582  -0.1934815   2.7443673
  14   2.8893549  -0.1934805  -2.7020456
  14   2.8893552  -0.1934805   2.7443677
  14  -1.4096010  -4.0793938  -1.3930591
  14  -1.4096007  -4.0793938   4.0533542
  14  -1.4096000   1.3670196  -1.3930590
  14  -1.4095997   1.3670196   4.0533542
  14   4.0368124  -4.0793928  -1.3930588
  14   4.0368127  -4.0793928   4.0533545
  14   4.0368134   1.3670206  -1.3930587
  14   4.0368137   1.3670206   4.0533545
  14  -2.5572817  -2.5169515  -0.0198619
  14  -2.5572807   2.9294619  -0.0198618
  14   2.8891316  -2.5169505  -0.0198616
  14   2.8891326   2.9294629  -0.0198615
  14  -1.2300257  -1.2346302  -4.2166111
  14  -1.2300254  -1.2346302   1.2298022
  14  -1.2300247   4.2117832  -4.2166110
  14  -1.2300244   4.2117832   1.2298022
  14   4.2163877  -1.2346292  -4.2166108
  14   4.2163880  -1.2346292   1.2298025
  14   4.2163887   4.2117842  -4.2166107
  14   4.2163890   4.2117842   1.2298026
ATOMS    6
  32  -0.1794910  -0.2231195  -0.0228807
  14  -3.8764342  -3.8814909  -3.8581624
  14  -3.8764339  -3.8814909   1.5882509
  14  -3.8764332   1.5649224  -3.8581623
  14  -3.8764329   1.5649225   1.5882509
  14   1.5699792  -3.8814899  -3.8581621
  14   1.5699795  -3.8814899   1.5882512
  14   1.5699802   1.5649235  -3.8581620
  14   1.5699805   1.5649235   1.5882513
  14  -0.1709616  -2.4964551  -2.6999355
  14  -0.1709613  -2.4964550   2.7464777
  14  -0.1709606   2.9499583  -2.6999355
  14  -0.1709603   2.9499584   2.7464778
  14  -4.1186448  -1.3744689  -1.3512593
  14  -4.1186445  -1.3744688   4.0951540
  14  -4.1186438   4.0719445  -1.3512592
  14  -4.1186435   4.0719446   4.0951541
  14   1.3277686  -1.3744679  -1.3512589
  14   1.3277689  -1.3744678   4.0951543
  14   1.3277696   4.0719455  -1.3512589
  14   1.3277699   4.0719456   4.0951544
  14  -2.5407451  -0.2124785  -2.6999683
  14  -2.5407448  -0.2124784   2.7464450
  14   2.9056683  -0.2124775  -2.6999680
  14   2.9056686  -0.2124774   2.7464453
  14  -1.4123780  -4.0807976  -1.3942121
  14  -1.4123777  -4.0807976   4.0522012
  14  -1.4123770   1.3656158  -1.3942120
  14  -1.4123767   1.3656158   4.0522013
  14   4.0340354  -4.0807966  -1.3942118
  14   4.0340357  -4.0807966   4.0522015
  14   4.0340364   1.3656168  -1.3942117
  14   4.0340367   1.3656168   4.0522016
  14  -2.5409903  -2.4967002  -0.0218119
  14  -2.5409893   2.9497132  -0.0218118
  14   2.9054231  -2.4966992  -0.0218116
  14   2.9054241   2.9497142  -0.0218115
  14  -1.2151708  -1.2202275  -4.2335662
  14  -1.2151705  -1.2202274   1.2128471
  14  -1.2151698   4.2261859  -4.2335661
  14  -1.2151695   4.2261859   1.2128472
  14   4.2312425  -1.2202265  -4.2335659
  14   4.2312428  -1.2202264   1.2128474
  14   4.2312435   4.2261869  -4.2335658
  14   4.2312438   4.2261869   1.2128475
ATOMS    7
  32  -0.1876941  -0.2333165  -0.0239264
  14  -3.8678120  -3.8730999  -3.8487052
  14  -3.8678117  -3.8730998   1.5977081
  14  -3.8678110   1.5733135  -3.8487051
  14  -3.8678107   1.5733136   1.5977082
  14   1.5786014  -3.8730989  -3.8487049
  14   1.5786017  -3.8730988   1.5977084
  14   1.5786024   1.5733145  -3.8487048
  14   1.5786027   1.5733146   1.5977085
  14  -0.1787749  -2.4860920  -2.6988720
  14  -0.1787746  -2.4860919   2.7475413
  14  -0.1787739   2.9603214  -2.6988719
  14  -0.1787736   2.9603214   2.7475413
  14  -4.1210920  -1.3741559  -1.3498856
  14  -4.1210917  -1.3741558   4.0965277
  14  -4.1210910   4.0722575  -1.3498855
  14  -4.1210907   4.0722576   4.0965278
  14   1.3253214  -1.3741549  -1.3498853
  14   1.3253217  -1.3741548   4.0965280
  14   1.3253224   4.0722585  -1.3498852
  14   1.3253227   4.0722586   4.0965281
  14  -2.5324062  -0.2221892  -2.6989063
  14  -2.5324059  -0.2221891   2.7475070
  14   2.9140072  -0.2221882  -2.6989060
  14   2.9140075  -0.2221881   2.7475073
  14  -1.4137975  -4.0815152  -1.3948014
  14  -1.4137972  -4.0815152   4.0516119
  14  -1.4137965   1.3648982  -1.3948013
  14  -1.4137962   1.3648982   4.0516119
  14   4.0326159  -4.0815142  -1.3948011
  14   4.0326162  -4.0815142   4.0516122
  14   4.0326169   1.3648992  -1.3948010
  14   4.0326172   1.3648992   4.0516122
  14  -2.5326626  -2.4863483  -0.0228087
  14  -2.5326616   2.9600650  -0.0228086
  14   2.9137508  -2.4863473  -0.0228084
  14   2.9137518   2.9600660  -0.0228083
  14  -1.2075775  -1.2128653  -4.2422331
  14  -1.2075772  -1.2128652   1.2041802
  14  -1.2075765   4.2335481  -4.2422330
  14  -1.2075762   4.2335482   1.2041802
  14   4.2388359  -1.2128643  -4.2422328
  14   4.2388362  -1.2128642   1.2041805
  14   4.2388369   4.2335491  -4.2422327
  14   4.2388372   4.2335492   1.2041805
ATOMS    8
  32  -0.1876941  -0.2333165  -0.0239264
  14  -3.8678120  -3.8730999  -3.8487052
  14  -3.8678117  -3.8730998   1.5977081
  14  -3.8678110   1.5733135  -3.8487051
  14  -3.8678107   1.5733136   1.5977082
  14   1.5786014  -3.8730989  -3.8487049
  14   1.5786017  -3.8730988   1.5977084
  14   1.5786024   1.5733145  -3.8487048
  14   1.5786027   1.5733146   1.5977085
  14  -0.1787749  -2.4860920  -2.6988720
  14  -0.1787746  -2.4860919   2.7475413
  14  -0.1787739   2.9603214  -2.6988719
  14  -0.1787736   2.9603214   2.7475413
  14  -4.1210920  -1.3741559  -1.3498856
  14  -4.1210917  -1.3741558   4.0965277
  14  -4.1210910   4.0722575  -1.3498855
  14  -4.1210907   4.0722576   4.0965278
  14   1.3253214  -1.3741549  -1.3498853
  14   1.3253217  -1.3741548   4.0965280
  14   1.3253224   4.0722585  -1.3498852
  14   1.3253227   4.0722586   4.0965281
  14  -2.5324062  -0.2221892  -2.6989063
  14  -2.5324059  -0.2221891   2.7475070
  14   2.9140072  -0.2221882  -2.6989060
  14   2.9140075  -0.2221881   2.7475073
  14  -1.4137975  -4.0815152  -1.3948014
  14  -1.4137972  -4.0815152   4.0516119
  14  -1.4137965   1.3648982  -1.3948013
  14  -1.4137962   1.3648982   4.0516119
  14   4.0326159  -4.0815142  -1.3948011
  14   4.0326162  -4.0815142   4.0516122
  14   4.0326169   1.3648992  -1.3948010
  14   4.0326172   1.3648992   4.0516122
  14  -2.5326626  -2.4863483  -0.0228087
  14  -2.5326616   2.9600650  -0.0228086
  14   2.9137508  -2.4863473  -0.0228084
  14   2.9137518   2.9600660  -0.0228083
  14  -1.2075775  -1.2128653  -4.2422331
  14  -1.2075772  -1.2128652   1.2041802
  14  -1.2075765   4.2335481  -4.2422330
  14  -1.2075762   4.2335482   1.2041802
  14   4.2388359  -1.2128643  -4.2422328
  14   4.2388362  -1.2128642   1.2041805
  14   4.2388369   4.2335491  -4.2422327
  14   4.2388372   4.2335492   1.2041805
ATOMS    9
  32  -0.1794910  -0.2231195  -0.0228807
  14  -3.8764342  -3.8814909  -3.8581624
  14  -3.8764339  -3.8814909   1.5882509
  14  -3.8764332   1.5649224  -3.8581623
  14  -3.8764329   1.5649225   1.5882509
  14   1.5699792  -3.8814899  -3.8581621
  14   1.5699795  -3.8814899   1.5882512
  14   1.5699802   1.5649235  -3.8581620
  14   1.5699805   1.5649235   1.5882513
  14  -0.1709616  -2.4964551  -2.6999355
  14  -0.1709613  -2.4964550   2.7464777
  14  -0.1709606   2.9499583  -2.6999355
  14  -0.1709603   2.9499584   2.7464778
  14  -4.1186448  -1.3744689  -1.3512593
  14  -4.1186445  -1.3744688   4.0951540
  14  -4.1186438   4.0719445  -1.3512592
  14  -4.1186435   4.0719446   4.0951541
  14   1.3277686  -1.3744679  -1.3512589
  14   1.3277689  -1.3744678   4.0951543
  14   1.3277696   4.0719455  -1.3512589
  14   1.3277699   4.0719456   4.0951544
  14  -2.5407451  -0.2124785  -2.6999683
  14  -2.5407448  -0.2124784   2.7464450
  14   2.9056683  -0.2124775  -2.6999680
  14   2.9056686  -0.2124774   2.7464453
  14  -1.4123780  -4.0807976  -1.3942121
  14  -1.4123777  -4.0807976   4.0522012
  14  -1.4123770   1.3656158  -1.3942120
  14  -1.4123767   1.3656158   4.0522013
  14   4.0340354  -4.0807966  -1.3942118
  14   4.0340357  -4.0807966   4.0522015
  14   4.0340364   1.3656168  -1.3942117
  14   4.0340367   1.3656168   4.0522016
  14  -2.5409903  -2.4967002  -0.0218119
  14  -2.5409893   2.9497132  -0.0218118
  14   2.9054231  -2.4966992  -0.0218116
  14   2.9054241   2.9497142  -0.0218115
  14  -1.2151708  -1.2202275  -4.2335662
  14  -1.2151705  -1.2202274   1.2128471
  14  -1.2151698   4.2261859  -4.2335661
  14  -1.2151695   4.2261859   1.2128472
  14   4.2312425  -1.2202265  -4.2335659
  14   4.2312428  -1.2202264   1.2128474
  14   4.2312435   4.2261869  -4.2335658
  14   4.2312438   4.2261869   1.2128475
ATOMS   10
  32  -0.1634433  -0.2031710  -0.0208351
  14  -3.8933018  -3.8979064  -3.8766635
  14  -3.8933015  -3.8979063   1.5697498
  14  -3.8933008   1.5485070  -3.8766634
  14  -3.8933005   1.5485071   1.5697498
  14   1.5531116  -3.8979054  -3.8766632
  14   1.5531119  -3.8979053   1.5697501
  14   1.5531126   1.5485080  -3.8766631
  14   1.5531129   1.5485081   1.5697502
  14  -0.1556765  -2.5167282  -2.7020161
  14  -0.1556762  -2.5167282   2.7443972
  14  -0.1556755   2.9296852  -2.7020160
  14  -0.1556752   2.9296852   2.7443973
  14  -4.1138572  -1.3750812  -1.3539465
  14  -4.1138569  -1.3750811   4.0924667
  14  -4.1138562   4.0713322  -1.3539465
  14  -4.1138559   4.0713323   4.0924668
  14   1.3325562  -1.3750802  -1.3539462
  14   1.3325565  -1.3750801   4.0924670
  14   1.3325572   4.0713332  -1.3539462
  14   1.3325575   4.0713333   4.0924671
  14  -2.5570585  -0.1934815  -2.7020459
  14  -2.5570582  -0.1934815   2.7443673
  14   2.8893549  -0.1934805  -2.7020456
  14   2.8893552  -0.1934805   2.7443677
  14  -1.4096010  -4.0793938  -1.3930591
  14  -1.4096007  -4.0793938   4.0533542
  14  -1.4096000   1.3670196  -1.3930590
  14  -1.4095997   1.3670196   4.0533542
  14   4.0368124  -4.0793928  -1.3930588
  14   4.0368127  -4.0793928   4.0533545
  14   4.0368134   1.3670206  -1.3930587
  14   4.0368137   1.3670206   4.0533545
  14  -2.5572817  -2.5169515  -0.0198619
  14  -2.5572807   2.9294619  -0.0198618
  14   2.8891316  -2.5169505  -0.0198616
  14   2.8891326   2.9294629  -0.0198615
  14  -1.2300257  -1.2346302  -4.2166111
  14  -1.2300254  -1.2346302   1.2298022
  14  -1.2300247   4.2117832  -4.2166110
  14  -1.2300244   4.2117832   1.2298022
  14   4.2163877  -1.2346292  -4.2166108
  14   4.2163880  -1.2346292   1.2298025
  14   4.2163887   4.2117842  -4.2166107
  14   4.2163890   4.2117842   1.2298026
ATOMS   11
  32  -0.1402524  -0.1743429  -0.0178788
  14  -3.9176775  -3.9216287  -3.9033999
  14  -3.9176772  -3.9216286   1.5430134
  14  -3.9176765   1.5247847  -3.9033998
  14  -3.9176762   1.5247847   1.5430135
  14   1.5287358  -3.9216277  -3.9033996
  14   1.5287362  -3.9216276   1.5430137
  14   1.5287368   1.5247857  -3.9033995
  14   1.5287372   1.5247857   1.5430138
  14  -0.1335876  -2.5460255  -2.7050227
  14  -0.1335873  -2.5460254   2.7413905
  14  -0.1335866   2.9003879  -2.7050227
  14  -0.1335863   2.9003880   2.7413906
  14  -4.1069386  -1.3759660  -1.3578300
  14  -4.1069383  -1.3759659   4.0885833
  14  -4.1069376   4.0704474  -1.3578299
  14  -4.1069373   4.0704475   4.0885833
  14   1.3394747  -1.3759650  -1.3578297
  14   1.3394750  -1.3759649   4.0885836
  14   1.3394757   4.0704484  -1.3578296
  14   1.3394760   4.0704485   4.0885836
  14  -2.5806333  -0.1660285  -2.7050484
  14  -2.5806330  -0.1660284   2.7413649
  14   2.8657801  -0.1660275  -2.7050481
  14   2.8657804  -0.1660274   2.7413652
  14  -1.4055879  -4.0773652  -1.3913930
  14  -1.4055876  -4.0773651   4.0550203
  14  -1.4055869   1.3690482  -1.3913929
  14  -1.4055866   1.3690483   4.0550204
  14   4.0408255  -4.0773642  -1.3913927
  14   4.0408258  -4.0773641   4.0550206
  14   4.0408265   1.3690492  -1.3913926
  14   4.0408268   1.3690493   4.0550207
  14  -2.5808249  -2.5462171  -0.0170439
  14  -2.5808239   2.9001962  -0.0170438
  14   2.8655884  -2.5462161  -0.0170436
  14   2.8655894   2.9001972  -0.0170435
  14  -1.2514928  -1.2554439  -4.1921089
  14  -1.2514925  -1.2554439   1.2543044
  14  -1.2514918   4.1909695  -4.1921088
  14  -1.2514915   4.1909695   1.2543045
  14   4.1949206  -1.2554429  -4.1921086
  14   4.1949209  -1.2554429   1.2543047
  14   4.1949216   4.1909705  -4.1921085
  14   4.1949219   4.1909705   1.2543048
ATOMS   12
  32  -0.1109318  -0.1378953  -0.0141413
  14  -3.9484961  -3.9516212  -3.9372031
  14  -3.9484958  -3.9516211   1.5092102
  14  -3.9484951   1.4947922  -3.9372030
  14  -3.9484948   1.4947922   1.5092103
  14   1.4979173  -3.9516202  -3.9372027
  14   1.4979176  -3.9516201   1.5092105
  14   1.4979183   1.4947932  -3.9372027
  14   1.4979186   1.4947932   1.5092106
  14  -0.1056604  -2.5830664  -2.7088241
  14  -0.1056601  -2.5830663   2.7375892
  14  -0.1056594   2.8633470  -2.7088240
  14  -0.1056591   2.8633470   2.7375892
  14  -4.0981914  -1.3770847  -1.3627399
  14  -4.0981911  -1.3770846   4.0836733
  14  -4.0981904   4.0693287  -1.3627399
  14  -4.0981901   4.0693288   4.0836734
  14   1.3482220  -1.3770837  -1.3627396
  14   1.3482223  -1.3770836   4.0836736
  14   1.3482230   4.0693297  -1.3627395
  14   1.3482233   4.0693298   4.0836737
  14  -2.6104392  -0.1313193  -2.7088444
  14  -2.6104389  -0.1313192   2.7375689
  14   2.8359741  -0.1313183  -2.7088441
  14   2.8359745  -0.1313182   2.7375692
  14  -1.4005141  -4.0748003  -1.3892864
  14  -1.4005138  -4.0748002   4.0571268
  14  -1.4005131   1.3716131  -1.3892863
  14  -1.4005128   1.3716132   4.0571269
  14   4.0458993  -4.0747993  -1.3892861
  14   4.0458996  -4.0747992   4.0571272
  14   4.0459003   1.3716141  -1.3892860
  14   4.0459006   1.3716142   4.0571272
  14  -2.6105909  -2.5832181  -0.0134810
  14  -2.6105899   2.8631953  -0.0134809
  14   2.8358225  -2.5832171  -0.0134807
  14   2.8358235   2.8631963  -0.0134806
  14  -1.2786339  -1.2817590  -4.1611304
  14  -1.2786336  -1.2817589   1.2852829
  14  -1.2786329   4.1646544  -4.1611303
  14  -1.2786326   4.1646545   1.2852829
  14   4.1677795  -1.2817580  -4.1611301
  14   4.1677798  -1.2817579   1.2852832
  14   4.1677805   4.1646554  -4.1611300
  14   4.1677808   4.1646555   1.2852832
ATOMS   13
  32  -0.0767630  -0.0954209  -0.0097856
  14  -3.9844106  -3.9865730  -3.9765957
  14  -3.9844103  -3.9865730   1.4698176
  14  -3.9844096   1.4598404  -3.9765956
  14  -3.9844093   1.4598404   1.4698177
  14   1.4620028  -3.9865720  -3.9765954
  14   1.4620031  -3.9865720   1.4698179
  14   1.4620038   1.4598414  -3.9765953
  14   1.4620041   1.4598414   1.4698180
  14  -0.0731153  -2.6262321  -2.7132540
  14  -0.0731150  -2.6262321   2.7331592
  14  -0.0731143   2.8201812  -2.7132540
  14  -0.0731140   2.8201813   2.7331593
  14  -4.0879978  -1.3783884  -1.3684617
  14  -4.0879975  -1.3783883   4.0779516
  14  -4.0879968   4.0680250  -1.3684616
  14  -4.0879965   4.0680251   4.0779516
  14   1.3584156  -1.3783873  -1.3684614
  14   1.3584159  -1.3783873   4.0779519
  14   1.3584166   4.0680260  -1.3684613
  14   1.3584169   4.0680261   4.0779519
  14  -2.6451737  -0.0908709  -2.7132681
  14  -2.6451734  -0.0908708   2.7331452
  14   2.8012397  -0.0908699  -2.7132678
  14   2.8012400  -0.0908698   2.7331455
  14  -1.3946013  -4.0718113  -1.3868316
  14  -1.3946010  -4.0718112   4.0595817
  14  -1.3946003   1.3746021  -1.3868315
  14  -1.3946000   1.3746022   4.0595818
  14   4.0518120  -4.0718103  -1.3868313
  14   4.0518123  -4.0718102   4.0595820
  14   4.0518130   1.3746031  -1.3868312
  14   4.0518133   1.3746032   4.0595821
  14  -2.6452788  -2.6263372  -0.0093290
  14  -2.6452778   2.8200761  -0.0093289
  14   2.8011346  -2.6263362  -0.0093287
  14   2.8011356   2.8200771  -0.0093286
  14  -1.3102629  -1.3124253  -4.1250296
  14  -1.3102626  -1.3124252   1.3213837
  14  -1.3102619   4.1339881  -4.1250295
  14  -1.3102616   4.1339882   1.3213838
  14   4.1361505  -1.3124243  -4.1250293
  14   4.1361508  -1.3124242   1.3213840
  14   4.1361515   4.1339891  -4.1250292
  14   4.1361518   4.1339892   1.3213841
ATOMS   14
  32  -0.0392393  -0.0487761  -0.0050024
  14  -4.0238514  -4.0249566  -4.0198560
  14  -4.0238511  -4.0249565   1.4265572
  14  -4.0238504   1.4214568  -4.0198560
  14  -4.0238501   1.4214569   1.4265573
  14   1.4225620  -4.0249556  -4.0198557
  14   1.4225623  -4.0249555   1.4265575
  14   1.4225630   1.4214578  -4.0198557
  14   1.4225633   1.4214579   1.4265576
  14  -0.0373747  -2.6736361  -2.7181189
  14  -0.0373744  -2.6736360   2.7282944
  14  -0.0373737   2.7727773  -2.7181188
  14  -0.0373734   2.7727773   2.7282944
  14  -4.0768033  -1.3798200  -1.3747453
  14  -4.0768030  -1.3798199   4.0716680
  14  -4.0768023   4.0665934  -1.3747452
  14  -4.0768020   4.0665934   4.0716680
  14   1.3696101  -1.3798190  -1.3747450
  14   1.3696104  -1.3798189   4.0716683
  14   1.3696111   4.0665944  -1.3747449
  14   1.3696114   4.0665944   4.0716683
  14  -2.6833185  -0.0464509  -2.7181262
  14  -2.6833182  -0.0464509   2.7282871
  14   2.7630949  -0.0464499  -2.7181259
  14   2.7630952  -0.0464499   2.7282874
  14  -1.3881080  -4.0685288  -1.3841357
  14  -1.3881077  -4.0685287   4.0622776
  14  -1.3881070   1.3778846  -1.3841356
  14  -1.3881067   1.3778847   4.0622777
  14   4.0583054  -4.0685278  -1.3841354
  14   4.0583057  -4.0685277   4.0622779
  14   4.0583064   1.3778856  -1.3841353
  14   4.0583067   1.3778857   4.0622780
  14  -2.6833725  -2.6736901  -0.0047694
  14  -2.6833715   2.7727233  -0.0047693
  14   2.7630409  -2.6736891  -0.0047691
  14   2.7630419   2.7727243  -0.0047690
  14  -1.3449974  -1.3461026  -4.0853842
  14  -1.3449971  -1.3461025   1.3610291
  14  -1.3449964   4.1003108  -4.0853841
  14  -1.3449961   4.1003109   1.3610292
  14   4.1014160  -1.3461016  -4.0853839
  14   4.1014163  -1.3461015   1.3610294
  14   4.1014170   4.1003118  -4.0853838
  14   4.1014173   4.1003119   1.3610295
ATOMS   15
  32  -0.0000007   0.0000004  -0.0000005
  14  -4.0650947  -4.0650944  -4.0650935
  14  -4.0650944  -4.0650943   1.3813197
  14  -4.0650937   1.3813190  -4.0650935
  14  -4.0650934   1.3813191   1.3813198
  14   1.3813187  -4.0650934  -4.0650932
  14   1.3813190  -4.0650933   1.3813200
  14   1.3813197   1.3813200  -4.0650932
  14   1.3813200   1.3813201   1.3813201
  14  -0.0000008  -2.7232066  -2.7232061
  14  -0.0000005  -2.7232065   2.7232072
  14   0.0000002   2.7232068  -2.7232060
  14   0.0000005   2.7232069   2.7232072
  14  -4.0650971  -1.3813171  -1.3813161
  14  -4.0650968  -1.3813170   4.0650972
  14  -4.0650961   4.0650963  -1.3813160
  14  -4.0650958   4.0650964   4.0650973
  14   1.3813162  -1.3813161  -1.3813157
  14   1.3813165  -1.3813160   4.0650975
  14   1.3813172   4.0650973  -1.3813157
  14   1.3813175   4.0650974   4.0650976
  14  -2.7232067  -0.0000010  -2.7232062
  14  -2.7232064  -0.0000009   2.7232070
  14   2.7232067   0.0000000  -2.7232059
  14   2.7232070   0.0000001   2.7232073
  14  -1.3813179  -4.0650963  -1.3813166
  14  -1.3813176  -4.0650962   4.0650967
  14  -1.3813169   1.3813171  -1.3813165
  14  -1.3813166   1.3813171   4.0650968
  14   4.0650954  -4.0650953  -1.3813163
  14   4.0650957  -4.0650952   4.0650970
  14   4.0650964   1.3813181  -1.3813162
  14   4.0650968   1.3813181   4.0650971
  14  -2.7232071  -2.7232070  -0.0000013
  14  -2.7232061   2.7232064  -0.0000013
  14   2.7232063  -2.7232060  -0.0000010
  14   2.7232073   2.7232074  -0.0000010
  14  -1.3813193  -1.3813190  -4.0439269
  14  -1.3813190  -1.3813189   1.4024864
  14  -1.3813183   4.0650944  -4.0439268
  14  -1.3813180   4.0650945   1.4024865
  14   4.0650940  -1.3813180  -4.0439266
  14   4.0650944  -1.3813179   1.4024867
  14   4.0650951   4.0650954  -4.0439265
  14   4.0650954   4.0650955   1.4024868
ATOMS   16
  32   0.0392379   0.0487769   0.0050013
  14  -4.1063380  -4.1052322  -4.1103310
  14  -4.1063377  -4.1052321   1.3360823
  14  -4.1063370   1.3411812  -4.1103309
  14  -4.1063367   1.3411813   1.3360823
  14   1.3400753  -4.1052312  -4.1103307
  14   1.3400756  -4.1052311   1.3360826
  14   1.3400763   1.3411822  -4.1103306
  14   1.3400766   1.3411823   1.3360826
  14   0.0373732  -2.7727770  -2.7282933
  14   0.0373735  -2.7727769   2.7181199
  14   0.0373742   2.6736364  -2.7282933
  14   0.0373745   2.6736365   2.7181200
  14  -4.0533910  -1.3828142  -1.3878868
  14  -4.0533907  -1.3828141   4.0585265
  14  -4.0533900   4.0635992  -1.3878867
  14  -4.0533897   4.0635993   4.0585265
  14   1.3930223  -1.3828132  -1.3878865
  14   1.3930227  -1.3828131   4.0585268
  14   1.3930233   4.0636002  -1.3878864
  14   1.3930237   4.0636003   4.0585268
  14  -2.7630948   0.0464490  -2.7282863
  14  -2.7630945   0.0464491   2.7181270
  14   2.6833186   0.0464500  -2.7282860
  14   2.6833189   0.0464501   2.7181273
  14  -1.3745279  -4.0616638  -1.3784975
  14  -1.3745276  -4.0616638   4.0679158
  14  -1.3745269   1.3847496  -1.3784974
  14  -1.3745266   1.3847496   4.0679159
  14   4.0718855  -4.0616628  -1.3784972
  14   4.0718858  -4.0616628   4.0679161
  14   4.0718865   1.3847506  -1.3784971
  14   4.0718868   1.3847506   4.0679162
  14  -2.7630418  -2.7727239   0.0047667
  14  -2.7630408   2.6736894   0.0047668
  14   2.6833716  -2.7727229   0.0047670
  14   2.6833726   2.6736904   0.0047671
  14  -1.4176413  -1.4165354  -4.0024696
  14  -1.4176410  -1.4165353   1.4439437
  14  -1.4176403   4.0298780  -4.0024695
  14  -1.4176399   4.0298781   1.4439437
  14   4.0287721  -1.4165344  -4.0024693
  14   4.0287724  -1.4165343   1.4439440
  14   4.0287731   4.0298790  -4.0024692
  14   4.0287734   4.0298791   1.4439441
ATOMS   17
  32   0.0767616   0.0954217   0.0097846
  14  -4.1457788  -4.1436158  -4.1535914
  14  -4.1457785  -4.1436157   1.2928219
  14  -4.1457778   1.3027976  -4.1535913
  14  -4.1457775   1.3027977   1.2928219