# --- AXSF block for ---- iev =    20  freq =     469.070872 cm-1
ANIMSTEPS   30
ATOMS    1
  32   0.0000039  -0.0000015   0.0000008
  14  -4.0299375  -4.0978467  -4.0675150
  14  -4.0299372  -4.0978466   1.3788983
  14  -4.0299365   1.3485667  -4.0675149
  14  -4.0299362   1.3485668   1.3788983
  14   1.4164759  -4.0978457  -4.0675147
  14   1.4164762  -4.0978456   1.3788986
  14   1.4164769   1.3485677  -4.0675146
  14   1.4164772   1.3485678   1.3788986
  14  -0.0000142  -2.6691105  -2.7075439
  14  -0.0000139  -2.6691104   2.7388693
  14  -0.0000132   2.7773029  -2.7075439
  14  -0.0000129   2.7773030   2.7388694
  14  -4.1002544  -1.3643623  -1.4334281
  14  -4.1002540  -1.3643622   4.0129852
  14  -4.1002533   4.0820511  -1.4334280
  14  -4.1002530   4.0820512   4.0129853
  14   1.3461590  -1.3643613  -1.4334278
  14   1.3461593  -1.3643612   4.0129855
  14   1.3461600   4.0820521  -1.4334277
  14   1.3461603   4.0820522   4.0129856
  14  -2.7725079  -0.0000002  -2.7388534
  14  -2.7725076  -0.0000001   2.7075599
  14   2.6739055   0.0000008  -2.7388531
  14   2.6739058   0.0000009   2.7075602
  14  -1.4006927  -4.0323441  -1.3292046
  14  -1.4006924  -4.0323440   4.1172087
  14  -1.4006917   1.4140693  -1.3292045
  14  -1.4006914   1.4140694   4.1172088
  14   4.0457207  -4.0323431  -1.3292043
  14   4.0457210  -4.0323430   4.1172090
  14   4.0457217   1.4140703  -1.3292042
  14   4.0457220   1.4140704   4.1172091
  14  -2.6738909  -2.7773031  -0.0000049
  14  -2.6738899   2.6691103  -0.0000049
  14   2.7725225  -2.7773021  -0.0000046
  14   2.7725235   2.6691113  -0.0000045
  14  -1.3619445  -1.3982888  -4.0415114
  14  -1.3619442  -1.3982887   1.4049019
  14  -1.3619435   4.0481246  -4.0415113
  14  -1.3619432   4.0481246   1.4049019
  14   4.0844688  -1.3982878  -4.0415111
  14   4.0844691  -1.3982877   1.4049022
  14   4.0844698   4.0481256  -4.0415110
  14   4.0844701   4.0481256   1.4049022
ATOMS    2
  32   0.0000083  -0.0000034   0.0000020
  14  -3.9963169  -4.1291675  -4.0698306
  14  -3.9963166  -4.1291674   1.3765826
  14  -3.9963159   1.3172459  -4.0698306
  14  -3.9963156   1.3172460   1.3765827
  14   1.4500965  -4.1291665  -4.0698303
  14   1.4500968  -4.1291664   1.3765829
  14   1.4500975   1.3172469  -4.0698303
  14   1.4500978   1.3172470   1.3765830
  14  -0.0000271  -2.6173786  -2.6925663
  14  -0.0000267  -2.6173785   2.7538470
  14  -0.0000261   2.8290348  -2.6925662
  14  -0.0000257   2.8290348   2.7538470
  14  -4.1338750  -1.3481485  -1.4832626
  14  -4.1338747  -1.3481484   3.9631507
  14  -4.1338740   4.0982649  -1.4832625
  14  -4.1338737   4.0982650   3.9631508
  14   1.3125384  -1.3481475  -1.4832622
  14   1.3125387  -1.3481474   3.9631510
  14   1.3125394   4.0982659  -1.4832622
  14   1.3125397   4.0982660   3.9631511
  14  -2.8196545   0.0000006  -2.7538167
  14  -2.8196542   0.0000006   2.6925966
  14   2.6267589   0.0000016  -2.7538163
  14   2.6267592   0.0000016   2.6925969
  14  -1.4192207  -4.0010232  -1.2793701
  14  -1.4192204  -4.0010232   4.1670432
  14  -1.4192197   1.4453902  -1.2793700
  14  -1.4192194   1.4453902   4.1670433
  14   4.0271926  -4.0010222  -1.2793698
  14   4.0271929  -4.0010222   4.1670435
  14   4.0271936   1.4453912  -1.2793697
  14   4.0271939   1.4453912   4.1670436
  14  -2.6267299  -2.8290349  -0.0000084
  14  -2.6267289   2.6173785  -0.0000083
  14   2.8196835  -2.8290339  -0.0000081
  14   2.8196845   2.6173795  -0.0000080
  14  -1.3434165  -1.4145170  -4.0392015
  14  -1.3434162  -1.4145169   1.4072117
  14  -1.3434155   4.0318964  -4.0392015
  14  -1.3434152   4.0318965   1.4072118
  14   4.1029969  -1.4145160  -4.0392012
  14   4.1029972  -1.4145159   1.4072121
  14   4.1029979   4.0318974  -4.0392011
  14   4.1029982   4.0318975   1.4072121
ATOMS    3
  32   0.0000123  -0.0000051   0.0000031
  14  -3.9657021  -4.1576880  -4.0719393
  14  -3.9657018  -4.1576879   1.3744740
  14  -3.9657011   1.2887254  -4.0719392
  14  -3.9657008   1.2887254   1.3744741
  14   1.4807113  -4.1576870  -4.0719389
  14   1.4807116  -4.1576869   1.3744743
  14   1.4807123   1.2887264  -4.0719389
  14   1.4807126   1.2887264   1.3744744
  14  -0.0000388  -2.5702720  -2.6789277
  14  -0.0000385  -2.5702719   2.7674855
  14  -0.0000378   2.8761414  -2.6789277
  14  -0.0000375   2.8761415   2.7674856
  14  -4.1644898  -1.3333843  -1.5286415
  14  -4.1644894  -1.3333842   3.9177718
  14  -4.1644887   4.1130291  -1.5286414
  14  -4.1644884   4.1130292   3.9177719
  14   1.2819236  -1.3333833  -1.5286412
  14   1.2819239  -1.3333832   3.9177721
  14   1.2819246   4.1130301  -1.5286411
  14   1.2819249   4.1130302   3.9177722
  14  -2.8625858   0.0000012  -2.7674421
  14  -2.8625855   0.0000013   2.6789712
  14   2.5838276   0.0000022  -2.7674418
  14   2.5838279   0.0000023   2.6789715
  14  -1.4360922  -3.9725027  -1.2339912
  14  -1.4360919  -3.9725026   4.2124221
  14  -1.4360912   1.4739107  -1.2339911
  14  -1.4360909   1.4739108   4.2124222
  14   4.0103211  -3.9725017  -1.2339909
  14   4.0103214  -3.9725016   4.2124224
  14   4.0103221   1.4739117  -1.2339908
  14   4.0103225   1.4739118   4.2124225
  14  -2.5837855  -2.8761416  -0.0000115
  14  -2.5837845   2.5702718  -0.0000114
  14   2.8626279  -2.8761406  -0.0000112
  14   2.8626289   2.5702728  -0.0000111
  14  -1.3265450  -1.4292943  -4.0370982
  14  -1.3265447  -1.4292942   1.4093151
  14  -1.3265440   4.0171191  -4.0370981
  14  -1.3265437   4.0171192   1.4093152
  14   4.1198683  -1.4292933  -4.0370978
  14   4.1198687  -1.4292932   1.4093154
  14   4.1198693   4.0171201  -4.0370978
  14   4.1198697   4.0171202   1.4093155
ATOMS    4
  32   0.0000158  -0.0000065   0.0000041
  14  -3.9394313  -4.1821618  -4.0737487
  14  -3.9394310  -4.1821617   1.3726646
  14  -3.9394303   1.2642516  -4.0737486
  14  -3.9394300   1.2642517   1.3726647
  14   1.5069821  -4.1821608  -4.0737484
  14   1.5069824  -4.1821607   1.3726649
  14   1.5069831   1.2642526  -4.0737483
  14   1.5069834   1.2642527   1.3726650
  14  -0.0000488  -2.5298493  -2.6672244
  14  -0.0000485  -2.5298492   2.7791889
  14  -0.0000478   2.9165641  -2.6672243
  14  -0.0000475   2.9165642   2.7791890
  14  -4.1907606  -1.3207150  -1.5675816
  14  -4.1907603  -1.3207149   3.8788317
  14  -4.1907596   4.1256984  -1.5675815
  14  -4.1907593   4.1256985   3.8788318
  14   1.2556528  -1.3207140  -1.5675813
  14   1.2556531  -1.3207139   3.8788320
  14   1.2556538   4.1256994  -1.5675812
  14   1.2556541   4.1256995   3.8788321
  14  -2.8994256   0.0000018  -2.7791342
  14  -2.8994253   0.0000019   2.6672790
  14   2.5469878   0.0000028  -2.7791339
  14   2.5469881   0.0000029   2.6672793
  14  -1.4505698  -3.9480290  -1.1950511
  14  -1.4505695  -3.9480289   4.2513622
  14  -1.4505688   1.4983844  -1.1950510
  14  -1.4505685   1.4983845   4.2513623
  14   3.9958436  -3.9480280  -1.1950508
  14   3.9958439  -3.9480279   4.2513625
  14   3.9958446   1.4983854  -1.1950507
  14   3.9958449   1.4983855   4.2513626
  14  -2.5469345  -2.9165643  -0.0000142
  14  -2.5469335   2.5298491  -0.0000141
  14   2.8994789  -2.9165633  -0.0000139
  14   2.8994799   2.5298501  -0.0000138
  14  -1.3120674  -1.4419748  -4.0352932
  14  -1.3120671  -1.4419747   1.4111200
  14  -1.3120664   4.0044386  -4.0352932
  14  -1.3120661   4.0044387   1.4111201
  14   4.1343459  -1.4419738  -4.0352929
  14   4.1343462  -1.4419737   1.4111204
  14   4.1343469   4.0044396  -4.0352928
  14   4.1343472   4.0044397   1.4111204
ATOMS    5
  32   0.0000185  -0.0000076   0.0000048
  14  -3.9186526  -4.2015191  -4.0751798
  14  -3.9186523  -4.2015190   1.3712335
  14  -3.9186516   1.2448943  -4.0751797
  14  -3.9186513   1.2448944   1.3712335
  14   1.5277608  -4.2015181  -4.0751795
  14   1.5277611  -4.2015180   1.3712338
  14   1.5277618   1.2448953  -4.0751794
  14   1.5277621   1.2448954   1.3712338
  14  -0.0000568  -2.4978773  -2.6579677
  14  -0.0000564  -2.4978772   2.7884456
  14  -0.0000558   2.9485361  -2.6579676
  14  -0.0000554   2.9485362   2.7884457
  14  -4.2115393  -1.3106943  -1.5983810
  14  -4.2115390  -1.3106942   3.8480323
  14  -4.2115383   4.1357191  -1.5983809
  14  -4.2115380   4.1357191   3.8480324
  14   1.2348741  -1.3106933  -1.5983807
  14   1.2348744  -1.3106932   3.8480326
  14   1.2348751   4.1357201  -1.5983806
  14   1.2348754   4.1357201   3.8480327
  14  -2.9285637   0.0000023  -2.7883821
  14  -2.9285634   0.0000023   2.6580312
  14   2.5178496   0.0000033  -2.7883818
  14   2.5178500   0.0000033   2.6580315
  14  -1.4620208  -3.9286716  -1.1642517
  14  -1.4620205  -3.9286715   4.2821616
  14  -1.4620198   1.5177418  -1.1642516
  14  -1.4620195   1.5177418   4.2821617
  14   3.9843926  -3.9286706  -1.1642514
  14   3.9843929  -3.9286705   4.2821619
  14   3.9843936   1.5177428  -1.1642513
  14   3.9843939   1.5177428   4.2821620
  14  -2.5177875  -2.9485363  -0.0000163
  14  -2.5177865   2.4978771  -0.0000162
  14   2.9286259  -2.9485353  -0.0000160
  14   2.9286269   2.4978781  -0.0000159
  14  -1.3006165  -1.4520044  -4.0338656
  14  -1.3006162  -1.4520043   1.4125476
  14  -1.3006155   3.9944090  -4.0338656
  14  -1.3006152   3.9944091   1.4125477
  14   4.1457969  -1.4520034  -4.0338653
  14   4.1457972  -1.4520033   1.4125479
  14   4.1457979   3.9944100  -4.0338653
  14   4.1457982   3.9944101   1.4125480
ATOMS    6
  32   0.0000204  -0.0000084   0.0000054
  14  -3.9042741  -4.2149140  -4.0761701
  14  -3.9042738  -4.2149139   1.3702431
  14  -3.9042731   1.2314994  -4.0761701
  14  -3.9042728   1.2314994   1.3702432
  14   1.5421393  -4.2149130  -4.0761698
  14   1.5421396  -4.2149129   1.3702434
  14   1.5421403   1.2315004  -4.0761698
  14   1.5421406   1.2315004   1.3702435
  14  -0.0000622  -2.4757532  -2.6515622
  14  -0.0000619  -2.4757531   2.7948511
  14  -0.0000612   2.9706602  -2.6515621
  14  -0.0000609   2.9706603   2.7948511
  14  -4.2259178  -1.3037602  -1.6196936
  14  -4.2259175  -1.3037601   3.8267197
  14  -4.2259168   4.1426532  -1.6196935
  14  -4.2259165   4.1426533   3.8267198
  14   1.2204956  -1.3037592  -1.6196933
  14   1.2204959  -1.3037591   3.8267200
  14   1.2204966   4.1426542  -1.6196932
  14   1.2204969   4.1426543   3.8267201
  14  -2.9487268   0.0000026  -2.7947814
  14  -2.9487265   0.0000026   2.6516319
  14   2.4976866   0.0000036  -2.7947811
  14   2.4976869   0.0000036   2.6516322
  14  -1.4699446  -3.9152767  -1.1429391
  14  -1.4699443  -3.9152766   4.3034742
  14  -1.4699436   1.5311367  -1.1429390
  14  -1.4699433   1.5311368   4.3034743
  14   3.9764688  -3.9152757  -1.1429387
  14   3.9764691  -3.9152756   4.3034745
  14   3.9764698   1.5311377  -1.1429387
  14   3.9764701   1.5311378   4.3034746
  14  -2.4976182  -2.9706603  -0.0000178
  14  -2.4976172   2.4757530  -0.0000177
  14   2.9487951  -2.9706593  -0.0000175
  14   2.9487961   2.4757540  -0.0000174
  14  -1.2926927  -1.4589446  -4.0328778
  14  -1.2926924  -1.4589446   1.4135355
  14  -1.2926917   3.9874687  -4.0328777
  14  -1.2926913   3.9874688   1.4135356
  14   4.1537207  -1.4589436  -4.0328775
  14   4.1537210  -1.4589436   1.4135358
  14   4.1537217   3.9874697  -4.0328774
  14   4.1537220   3.9874698   1.4135359
ATOMS    7
  32   0.0000214  -0.0000088   0.0000056
  14  -3.8969243  -4.2217611  -4.0766764
  14  -3.8969240  -4.2217610   1.3697369
  14  -3.8969233   1.2246523  -4.0766763
  14  -3.8969230   1.2246524   1.3697370
  14   1.5494891  -4.2217601  -4.0766761
  14   1.5494894  -4.2217600   1.3697372
  14   1.5494901   1.2246533  -4.0766760
  14   1.5494904   1.2246534   1.3697373
  14  -0.0000651  -2.4644440  -2.6482879
  14  -0.0000647  -2.4644440   2.7981253
  14  -0.0000641   2.9819694  -2.6482879
  14  -0.0000637   2.9819694   2.7981254
  14  -4.2332676  -1.3002157  -1.6305880
  14  -4.2332673  -1.3002156   3.8158253
  14  -4.2332666   4.1461977  -1.6305879
  14  -4.2332663   4.1461978   3.8158254
  14   1.2131458  -1.3002147  -1.6305877
  14   1.2131461  -1.3002146   3.8158256
  14   1.2131468   4.1461987  -1.6305876
  14   1.2131471   4.1461988   3.8158257
  14  -2.9590336   0.0000027  -2.7980525
  14  -2.9590333   0.0000028   2.6483607
  14   2.4873798   0.0000037  -2.7980522
  14   2.4873801   0.0000038   2.6483611
  14  -1.4739950  -3.9084296  -1.1320447
  14  -1.4739947  -3.9084295   4.3143686
  14  -1.4739940   1.5379838  -1.1320446
  14  -1.4739937   1.5379839   4.3143687
  14   3.9724183  -3.9084286  -1.1320444
  14   3.9724186  -3.9084285   4.3143689
  14   3.9724193   1.5379848  -1.1320443
  14   3.9724197   1.5379849   4.3143690
  14  -2.4873083  -2.9819695  -0.0000185
  14  -2.4873073   2.4644439  -0.0000185
  14   2.9591051  -2.9819685  -0.0000182
  14   2.9591061   2.4644449  -0.0000181
  14  -1.2886422  -1.4624923  -4.0323728
  14  -1.2886419  -1.4624922   1.4140405
  14  -1.2886412   3.9839211  -4.0323727
  14  -1.2886409   3.9839212   1.4140405
  14   4.1577711  -1.4624913  -4.0323725
  14   4.1577715  -1.4624912   1.4140408
  14   4.1577721   3.9839221  -4.0323724
  14   4.1577725   3.9839222   1.4140409
ATOMS    8
  32   0.0000214  -0.0000088   0.0000056
  14  -3.8969243  -4.2217611  -4.0766764
  14  -3.8969240  -4.2217610   1.3697369
  14  -3.8969233   1.2246523  -4.0766763
  14  -3.8969230   1.2246524   1.3697370
  14   1.5494891  -4.2217601  -4.0766761
  14   1.5494894  -4.2217600   1.3697372
  14   1.5494901   1.2246533  -4.0766760
  14   1.5494904   1.2246534   1.3697373
  14  -0.0000651  -2.4644440  -2.6482879
  14  -0.0000647  -2.4644440   2.7981253
  14  -0.0000641   2.9819694  -2.6482879
  14  -0.0000637   2.9819694   2.7981254
  14  -4.2332676  -1.3002157  -1.6305880
  14  -4.2332673  -1.3002156   3.8158253
  14  -4.2332666   4.1461977  -1.6305879
  14  -4.2332663   4.1461978   3.8158254
  14   1.2131458  -1.3002147  -1.6305877
  14   1.2131461  -1.3002146   3.8158256
  14   1.2131468   4.1461987  -1.6305876
  14   1.2131471   4.1461988   3.8158257
  14  -2.9590336   0.0000027  -2.7980525
  14  -2.9590333   0.0000028   2.6483607
  14   2.4873798   0.0000037  -2.7980522
  14   2.4873801   0.0000038   2.6483611
  14  -1.4739950  -3.9084296  -1.1320447
  14  -1.4739947  -3.9084295   4.3143686
  14  -1.4739940   1.5379838  -1.1320446
  14  -1.4739937   1.5379839   4.3143687
  14   3.9724183  -3.9084286  -1.1320444
  14   3.9724186  -3.9084285   4.3143689
  14   3.9724193   1.5379848  -1.1320443
  14   3.9724197   1.5379849   4.3143690
  14  -2.4873083  -2.9819695  -0.0000185
  14  -2.4873073   2.4644439  -0.0000185
  14   2.9591051  -2.9819685  -0.0000182
  14   2.9591061   2.4644449  -0.0000181
  14  -1.2886422  -1.4624923  -4.0323728
  14  -1.2886419  -1.4624922   1.4140405
  14  -1.2886412   3.9839211  -4.0323727
  14  -1.2886409   3.9839212   1.4140405
  14   4.1577711  -1.4624913  -4.0323725
  14   4.1577715  -1.4624912   1.4140408
  14   4.1577721   3.9839221  -4.0323724
  14   4.1577725   3.9839222   1.4140409
ATOMS    9
  32   0.0000204  -0.0000084   0.0000054
  14  -3.9042741  -4.2149140  -4.0761701
  14  -3.9042738  -4.2149139   1.3702431
  14  -3.9042731   1.2314994  -4.0761701
  14  -3.9042728   1.2314994   1.3702432
  14   1.5421393  -4.2149130  -4.0761698
  14   1.5421396  -4.2149129   1.3702434
  14   1.5421403   1.2315004  -4.0761698
  14   1.5421406   1.2315004   1.3702435
  14  -0.0000622  -2.4757532  -2.6515622
  14  -0.0000619  -2.4757531   2.7948511
  14  -0.0000612   2.9706602  -2.6515621
  14  -0.0000609   2.9706603   2.7948511
  14  -4.2259178  -1.3037602  -1.6196936
  14  -4.2259175  -1.3037601   3.8267197
  14  -4.2259168   4.1426532  -1.6196935
  14  -4.2259165   4.1426533   3.8267198
  14   1.2204956  -1.3037592  -1.6196933
  14   1.2204959  -1.3037591   3.8267200
  14   1.2204966   4.1426542  -1.6196932
  14   1.2204969   4.1426543   3.8267201
  14  -2.9487268   0.0000026  -2.7947814
  14  -2.9487265   0.0000026   2.6516319
  14   2.4976866   0.0000036  -2.7947811
  14   2.4976869   0.0000036   2.6516322
  14  -1.4699446  -3.9152767  -1.1429391
  14  -1.4699443  -3.9152766   4.3034742
  14  -1.4699436   1.5311367  -1.1429390
  14  -1.4699433   1.5311368   4.3034743
  14   3.9764688  -3.9152757  -1.1429387
  14   3.9764691  -3.9152756   4.3034745
  14   3.9764698   1.5311377  -1.1429387
  14   3.9764701   1.5311378   4.3034746
  14  -2.4976182  -2.9706603  -0.0000178
  14  -2.4976172   2.4757530  -0.0000177
  14   2.9487951  -2.9706593  -0.0000175
  14   2.9487961   2.4757540  -0.0000174
  14  -1.2926927  -1.4589446  -4.0328778
  14  -1.2926924  -1.4589446   1.4135355
  14  -1.2926917   3.9874687  -4.0328777
  14  -1.2926913   3.9874688   1.4135356
  14   4.1537207  -1.4589436  -4.0328775
  14   4.1537210  -1.4589436   1.4135358
  14   4.1537217   3.9874697  -4.0328774
  14   4.1537220   3.9874698   1.4135359
ATOMS   10
  32   0.0000185  -0.0000076   0.0000048
  14  -3.9186526  -4.2015191  -4.0751798
  14  -3.9186523  -4.2015190   1.3712335
  14  -3.9186516   1.2448943  -4.0751797
  14  -3.9186513   1.2448944   1.3712335
  14   1.5277608  -4.2015181  -4.0751795
  14   1.5277611  -4.2015180   1.3712338
  14   1.5277618   1.2448953  -4.0751794
  14   1.5277621   1.2448954   1.3712338
  14  -0.0000568  -2.4978773  -2.6579677
  14  -0.0000564  -2.4978772   2.7884456
  14  -0.0000558   2.9485361  -2.6579676
  14  -0.0000554   2.9485362   2.7884457
  14  -4.2115393  -1.3106943  -1.5983810
  14  -4.2115390  -1.3106942   3.8480323
  14  -4.2115383   4.1357191  -1.5983809
  14  -4.2115380   4.1357191   3.8480324
  14   1.2348741  -1.3106933  -1.5983807
  14   1.2348744  -1.3106932   3.8480326
  14   1.2348751   4.1357201  -1.5983806
  14   1.2348754   4.1357201   3.8480327
  14  -2.9285637   0.0000023  -2.7883821
  14  -2.9285634   0.0000023   2.6580312
  14   2.5178496   0.0000033  -2.7883818
  14   2.5178500   0.0000033   2.6580315
  14  -1.4620208  -3.9286716  -1.1642517
  14  -1.4620205  -3.9286715   4.2821616
  14  -1.4620198   1.5177418  -1.1642516
  14  -1.4620195   1.5177418   4.2821617
  14   3.9843926  -3.9286706  -1.1642514
  14   3.9843929  -3.9286705   4.2821619
  14   3.9843936   1.5177428  -1.1642513
  14   3.9843939   1.5177428   4.2821620
  14  -2.5177875  -2.9485363  -0.0000163
  14  -2.5177865   2.4978771  -0.0000162
  14   2.9286259  -2.9485353  -0.0000160
  14   2.9286269   2.4978781  -0.0000159
  14  -1.3006165  -1.4520044  -4.0338656
  14  -1.3006162  -1.4520043   1.4125476
  14  -1.3006155   3.9944090  -4.0338656
  14  -1.3006152   3.9944091   1.4125477
  14   4.1457969  -1.4520034  -4.0338653
  14   4.1457972  -1.4520033   1.4125479
  14   4.1457979   3.9944100  -4.0338653
  14   4.1457982   3.9944101   1.4125480
ATOMS   11
  32   0.0000158  -0.0000065   0.0000041
  14  -3.9394313  -4.1821618  -4.0737487
  14  -3.9394310  -4.1821617   1.3726646
  14  -3.9394303   1.2642516  -4.0737486
  14  -3.9394300   1.2642517   1.3726647
  14   1.5069821  -4.1821608  -4.0737484
  14   1.5069824  -4.1821607   1.3726649
  14   1.5069831   1.2642526  -4.0737483
  14   1.5069834   1.2642527   1.3726650
  14  -0.0000488  -2.5298493  -2.6672244
  14  -0.0000485  -2.5298492   2.7791889
  14  -0.0000478   2.9165641  -2.6672243
  14  -0.0000475   2.9165642   2.7791890
  14  -4.1907606  -1.3207150  -1.5675816
  14  -4.1907603  -1.3207149   3.8788317
  14  -4.1907596   4.1256984  -1.5675815
  14  -4.1907593   4.1256985   3.8788318
  14   1.2556528  -1.3207140  -1.5675813
  14   1.2556531  -1.3207139   3.8788320
  14   1.2556538   4.1256994  -1.5675812
  14   1.2556541   4.1256995   3.8788321
  14  -2.8994256   0.0000018  -2.7791342
  14  -2.8994253   0.0000019   2.6672790
  14   2.5469878   0.0000028  -2.7791339
  14   2.5469881   0.0000029   2.6672793
  14  -1.4505698  -3.9480290  -1.1950511
  14  -1.4505695  -3.9480289   4.2513622
  14  -1.4505688   1.4983844  -1.1950510
  14  -1.4505685   1.4983845   4.2513623
  14   3.9958436  -3.9480280  -1.1950508
  14   3.9958439  -3.9480279   4.2513625
  14   3.9958446   1.4983854  -1.1950507
  14   3.9958449   1.4983855   4.2513626
  14  -2.5469345  -2.9165643  -0.0000142
  14  -2.5469335   2.5298491  -0.0000141
  14   2.8994789  -2.9165633  -0.0000139
  14   2.8994799   2.5298501  -0.0000138
  14  -1.3120674  -1.4419748  -4.0352932
  14  -1.3120671  -1.4419747   1.4111200
  14  -1.3120664   4.0044386  -4.0352932
  14  -1.3120661   4.0044387   1.4111201
  14   4.1343459  -1.4419738  -4.0352929
  14   4.1343462  -1.4419737   1.4111204
  14   4.1343469   4.0044396  -4.0352928
  14   4.1343472   4.0044397   1.4111204
ATOMS   12
  32   0.0000123  -0.0000051   0.0000031
  14  -3.9657021  -4.1576880  -4.0719393
  14  -3.9657018  -4.1576879   1.3744740
  14  -3.9657011   1.2887254  -4.0719392
  14  -3.9657008   1.2887254   1.3744741
  14   1.4807113  -4.1576870  -4.0719389
  14   1.4807116  -4.1576869   1.3744743
  14   1.4807123   1.2887264  -4.0719389
  14   1.4807126   1.2887264   1.3744744
  14  -0.0000388  -2.5702720  -2.6789277
  14  -0.0000385  -2.5702719   2.7674855
  14  -0.0000378   2.8761414  -2.6789277
  14  -0.0000375   2.8761415   2.7674856
  14  -4.1644898  -1.3333843  -1.5286415
  14  -4.1644894  -1.3333842   3.9177718
  14  -4.1644887   4.1130291  -1.5286414
  14  -4.1644884   4.1130292   3.9177719
  14   1.2819236  -1.3333833  -1.5286412
  14   1.2819239  -1.3333832   3.9177721
  14   1.2819246   4.1130301  -1.5286411
  14   1.2819249   4.1130302   3.9177722
  14  -2.8625858   0.0000012  -2.7674421
  14  -2.8625855   0.0000013   2.6789712
  14   2.5838276   0.0000022  -2.7674418
  14   2.5838279   0.0000023   2.6789715
  14  -1.4360922  -3.9725027  -1.2339912
  14  -1.4360919  -3.9725026   4.2124221
  14  -1.4360912   1.4739107  -1.2339911
  14  -1.4360909   1.4739108   4.2124222
  14   4.0103211  -3.9725017  -1.2339909
  14   4.0103214  -3.9725016   4.2124224
  14   4.0103221   1.4739117  -1.2339908
  14   4.0103225   1.4739118   4.2124225
  14  -2.5837855  -2.8761416  -0.0000115
  14  -2.5837845   2.5702718  -0.0000114
  14   2.8626279  -2.8761406  -0.0000112
  14   2.8626289   2.5702728  -0.0000111
  14  -1.3265450  -1.4292943  -4.0370982
  14  -1.3265447  -1.4292942   1.4093151
  14  -1.3265440   4.0171191  -4.0370981
  14  -1.3265437   4.0171192   1.4093152
  14   4.1198683  -1.4292933  -4.0370978
  14   4.1198687  -1.4292932   1.4093154
  14   4.1198693   4.0171201  -4.0370978
  14   4.1198697   4.0171202   1.4093155
ATOMS   13
  32   0.0000083  -0.0000034   0.0000020
  14  -3.9963169  -4.1291675  -4.0698306
  14  -3.9963166  -4.1291674   1.3765826
  14  -3.9963159   1.3172459  -4.0698306
  14  -3.9963156   1.3172460   1.3765827
  14   1.4500965  -4.1291665  -4.0698303
  14   1.4500968  -4.1291664   1.3765829
  14   1.4500975   1.3172469  -4.0698303
  14   1.4500978   1.3172470   1.3765830
  14  -0.0000271  -2.6173786  -2.6925663
  14  -0.0000267  -2.6173785   2.7538470
  14  -0.0000261   2.8290348  -2.6925662
  14  -0.0000257   2.8290348   2.7538470
  14  -4.1338750  -1.3481485  -1.4832626
  14  -4.1338747  -1.3481484   3.9631507
  14  -4.1338740   4.0982649  -1.4832625
  14  -4.1338737   4.0982650   3.9631508
  14   1.3125384  -1.3481475  -1.4832622
  14   1.3125387  -1.3481474   3.9631510
  14   1.3125394   4.0982659  -1.4832622
  14   1.3125397   4.0982660   3.9631511
  14  -2.8196545   0.0000006  -2.7538167
  14  -2.8196542   0.0000006   2.6925966
  14   2.6267589   0.0000016  -2.7538163
  14   2.6267592   0.0000016   2.6925969
  14  -1.4192207  -4.0010232  -1.2793701
  14  -1.4192204  -4.0010232   4.1670432
  14  -1.4192197   1.4453902  -1.2793700
  14  -1.4192194   1.4453902   4.1670433
  14   4.0271926  -4.0010222  -1.2793698
  14   4.0271929  -4.0010222   4.1670435
  14   4.0271936   1.4453912  -1.2793697
  14   4.0271939   1.4453912   4.1670436
  14  -2.6267299  -2.8290349  -0.0000084
  14  -2.6267289   2.6173785  -0.0000083
  14   2.8196835  -2.8290339  -0.0000081
  14   2.8196845   2.6173795  -0.0000080
  14  -1.3434165  -1.4145170  -4.0392015
  14  -1.3434162  -1.4145169   1.4072117
  14  -1.3434155   4.0318964  -4.0392015
  14  -1.3434152   4.0318965   1.4072118
  14   4.1029969  -1.4145160  -4.0392012
  14   4.1029972  -1.4145159   1.4072121
  14   4.1029979   4.0318974  -4.0392011
  14   4.1029982   4.0318975   1.4072121
ATOMS   14
  32   0.0000039  -0.0000015   0.0000008
  14  -4.0299375  -4.0978467  -4.0675150
  14  -4.0299372  -4.0978466   1.3788983
  14  -4.0299365   1.3485667  -4.0675149
  14  -4.0299362   1.3485668   1.3788983
  14   1.4164759  -4.0978457  -4.0675147
  14   1.4164762  -4.0978456   1.3788986
  14   1.4164769   1.3485677  -4.0675146
  14   1.4164772   1.3485678   1.3788986
  14  -0.0000142  -2.6691105  -2.7075439
  14  -0.0000139  -2.6691104   2.7388693
  14  -0.0000132   2.7773029  -2.7075439
  14  -0.0000129   2.7773030   2.7388694
  14  -4.1002544  -1.3643623  -1.4334281
  14  -4.1002540  -1.3643622   4.0129852
  14  -4.1002533   4.0820511  -1.4334280
  14  -4.1002530   4.0820512   4.0129853
  14   1.3461590  -1.3643613  -1.4334278
  14   1.3461593  -1.3643612   4.0129855
  14   1.3461600   4.0820521  -1.4334277
  14   1.3461603   4.0820522   4.0129856
  14  -2.7725079  -0.0000002  -2.7388534
  14  -2.7725076  -0.0000001   2.7075599
  14   2.6739055   0.0000008  -2.7388531
  14   2.6739058   0.0000009   2.7075602
  14  -1.4006927  -4.0323441  -1.3292046
  14  -1.4006924  -4.0323440   4.1172087
  14  -1.4006917   1.4140693  -1.3292045
  14  -1.4006914   1.4140694   4.1172088
  14   4.0457207  -4.0323431  -1.3292043
  14   4.0457210  -4.0323430   4.1172090
  14   4.0457217   1.4140703  -1.3292042
  14   4.0457220   1.4140704   4.1172091
  14  -2.6738909  -2.7773031  -0.0000049
  14  -2.6738899   2.6691103  -0.0000049
  14   2.7725225  -2.7773021  -0.0000046
  14   2.7725235   2.6691113  -0.0000045
  14  -1.3619445  -1.3982888  -4.0415114
  14  -1.3619442  -1.3982887   1.4049019
  14  -1.3619435   4.0481246  -4.0415113
  14  -1.3619432   4.0481246   1.4049019
  14   4.0844688  -1.3982878  -4.0415111
  14   4.0844691  -1.3982877   1.4049022
  14   4.0844698   4.0481256  -4.0415110
  14   4.0844701   4.0481256   1.4049022
ATOMS   15
  32  -0.0000007   0.0000004  -0.0000005
  14  -4.0650947  -4.0650944  -4.0650935
  14  -4.0650944  -4.0650943   1.3813197
  14  -4.0650937   1.3813190  -4.0650935
  14  -4.0650934   1.3813191   1.3813198
  14   1.3813187  -4.0650934  -4.0650932
  14   1.3813190  -4.0650933   1.3813200
  14   1.3813197   1.3813200  -4.0650932
  14   1.3813200   1.3813201   1.3813201
  14  -0.0000008  -2.7232066  -2.7232061
  14  -0.0000005  -2.7232065   2.7232072
  14   0.0000002   2.7232068  -2.7232060
  14   0.0000005   2.7232069   2.7232072
  14  -4.0650971  -1.3813171  -1.3813161
  14  -4.0650968  -1.3813170   4.0650972
  14  -4.0650961   4.0650963  -1.3813160
  14  -4.0650958   4.0650964   4.0650973
  14   1.3813162  -1.3813161  -1.3813157
  14   1.3813165  -1.3813160   4.0650975
  14   1.3813172   4.0650973  -1.3813157
  14   1.3813175   4.0650974   4.0650976
  14  -2.7232067  -0.0000009  -2.7232062
  14  -2.7232064  -0.0000009   2.7232070
  14   2.7232067   0.0000001  -2.7232059
  14   2.7232070   0.0000001   2.7232073
  14  -1.3813179  -4.0650963  -1.3813166
  14  -1.3813176  -4.0650962   4.0650967
  14  -1.3813169   1.3813171  -1.3813165
  14  -1.3813166   1.3813171   4.0650968
  14   4.0650954  -4.0650953  -1.3813163
  14   4.0650957  -4.0650952   4.0650970
  14   4.0650964   1.3813181  -1.3813162
  14   4.0650968   1.3813181   4.0650971
  14  -2.7232071  -2.7232070  -0.0000013
  14  -2.7232061   2.7232064  -0.0000013
  14   2.7232063  -2.7232060  -0.0000010
  14   2.7232073   2.7232074  -0.0000010
  14  -1.3813193  -1.3813190  -4.0439269
  14  -1.3813190  -1.3813189   1.4024864
  14  -1.3813183   4.0650944  -4.0439268
  14  -1.3813180   4.0650945   1.4024865
  14   4.0650940  -1.3813180  -4.0439266
  14   4.0650944  -1.3813179   1.4024867
  14   4.0650951   4.0650954  -4.0439265
  14   4.0650954   4.0650955   1.4024868
ATOMS   16
  32  -0.0000053   0.0000023  -0.0000018
  14  -4.1002519  -4.0323421  -4.0626721
  14  -4.1002516  -4.0323421   1.3837412
  14  -4.1002509   1.4140713  -4.0626720
  14  -4.1002506   1.4140713   1.3837413
  14   1.3461614  -4.0323411  -4.0626717
  14   1.3461618  -4.0323411   1.3837415
  14   1.3461624   1.4140723  -4.0626717
  14   1.3461628   1.4140723   1.3837416
  14   0.0000127  -2.7773026  -2.7388683
  14   0.0000130  -2.7773026   2.7075450
  14   0.0000137   2.6691107  -2.7388682
  14   0.0000140   2.6691108   2.7075451
  14  -4.0299399  -1.3982719  -1.3292040
  14  -4.0299396  -1.3982719   4.1172092
  14  -4.0299389   4.0481415  -1.3292040
  14  -4.0299386   4.0481415   4.1172093
  14   1.4164734  -1.3982709  -1.3292037
  14   1.4164737  -1.3982709   4.1172095
  14   1.4164744   4.0481425  -1.3292036
  14   1.4164747   4.0481425   4.1172096
  14  -2.6739054  -0.0000017  -2.7075591
  14  -2.6739051  -0.0000016   2.7388542
  14   2.7725080  -0.0000007  -2.7075588
  14   2.7725083  -0.0000006   2.7388545
  14  -1.3619432  -4.0978486  -1.4334286
  14  -1.3619428  -4.0978485   4.0129847
  14  -1.3619422   1.3485648  -1.4334285
  14  -1.3619418   1.3485649   4.0129847
  14   4.0844702  -4.0978476  -1.4334283
  14   4.0844705  -4.0978475   4.0129850
  14   4.0844712   1.3485658  -1.4334282
  14   4.0844715   1.3485659   4.0129850
  14  -2.7725234  -2.6691109   0.0000023
  14  -2.7725224   2.7773025   0.0000023
  14   2.6738900  -2.6691099   0.0000026
  14   2.6738910   2.7773035   0.0000026
  14  -1.4006941  -1.3643491  -4.0463423
  14  -1.4006938  -1.3643490   1.4000709
  14  -1.4006931   4.0820643  -4.0463423
  14  -1.4006928   4.0820644   1.4000710
  14   4.0457193  -1.3643481  -4.0463420
  14   4.0457196  -1.3643480   1.4000712
  14   4.0457203   4.0820653  -4.0463420
  14   4.0457206   4.0820654   1.4000713
ATOMS   17
  32  -0.0000098   0.0000042  -0.0000030
  14  -4.1338726  -4.0010213  -4.0603564
  14  -4.1338723  -4.0010212   1.3860569
  14  -4.1338716   1.4453921  -4.0603563
  14  -4.1338713   1.4453922   1.3860569