# --- AXSF block for ---- iev =    18  freq =     444.819671 cm-1
ANIMSTEPS   30
ATOMS    1
  32   0.0105731   0.0119702   0.0015709
  14  -4.1026133  -4.1012330  -4.1114231
  14  -4.1026130  -4.1012329   1.3349902
  14  -4.1026123   1.3451804  -4.1114230
  14  -4.1026120   1.3451805   1.3349902
  14   1.3438000  -4.1012320  -4.1114228
  14   1.3438003  -4.1012319   1.3349905
  14   1.3438010   1.3451814  -4.1114227
  14   1.3438013   1.3451815   1.3349905
  14  -0.0563242  -2.6829279  -2.7179210
  14  -0.0563239  -2.6829278   2.7284922
  14  -0.0563232   2.7634855  -2.7179210
  14  -0.0563229   2.7634856   2.7284923
  14  -4.0487188  -1.3753436  -1.3856609
  14  -4.0487185  -1.3753435   4.0607524
  14  -4.0487178   4.0710698  -1.3856608
  14  -4.0487175   4.0710699   4.0607525
  14   1.3976946  -1.3753426  -1.3856606
  14   1.3976949  -1.3753425   4.0607527
  14   1.3976956   4.0710708  -1.3856605
  14   1.3976959   4.0710709   4.0607528
  14  -2.6876292  -0.0637553  -2.7179045
  14  -2.6876289  -0.0637552   2.7285088
  14   2.7587842  -0.0637543  -2.7179042
  14   2.7587845  -0.0637542   2.7285091
  14  -1.3711997  -4.0529005  -1.3801292
  14  -1.3711994  -4.0529004   4.0662841
  14  -1.3711987   1.3935129  -1.3801291
  14  -1.3711984   1.3935130   4.0662842
  14   4.0752136  -4.0528995  -1.3801288
  14   4.0752139  -4.0528994   4.0662844
  14   4.0752146   1.3935139  -1.3801288
  14   4.0752149   1.3935140   4.0662845
  14  -2.6874932  -2.6827918  -0.0083604
  14  -2.6874922   2.7636216  -0.0083603
  14   2.7589202  -2.6827908  -0.0083601
  14   2.7589212   2.7636226  -0.0083600
  14  -1.4125899  -1.4112095  -4.0007213
  14  -1.4125896  -1.4112094   1.4456919
  14  -1.4125889   4.0352039  -4.0007213
  14  -1.4125886   4.0352040   1.4456920
  14   4.0338235  -1.4112085  -4.0007210
  14   4.0338238  -1.4112084   1.4456923
  14   4.0338245   4.0352049  -4.0007209
  14   4.0338248   4.0352050   1.4456923
ATOMS    2
  32   0.0206847   0.0234168   0.0030737
  14  -4.1384922  -4.1357921  -4.1557279
  14  -4.1384919  -4.1357921   1.2906854
  14  -4.1384912   1.3106212  -4.1557278
  14  -4.1384909   1.3106213   1.2906855
  14   1.3079212  -4.1357911  -4.1557276
  14   1.3079215  -4.1357911   1.2906857
  14   1.3079222   1.3106223  -4.1557275
  14   1.3079225   1.3106223   1.2906858
  14  -0.1101860  -2.6444096  -2.7128670
  14  -0.1101857  -2.6444095   2.7335463
  14  -0.1101850   2.8020038  -2.7128669
  14  -0.1101847   2.8020039   2.7335464
  14  -4.0330562  -1.3696311  -1.3898158
  14  -4.0330559  -1.3696310   4.0565975
  14  -4.0330552   4.0767823  -1.3898157
  14  -4.0330549   4.0767824   4.0565975
  14   1.4133572  -1.3696301  -1.3898155
  14   1.4133575  -1.3696300   4.0565978
  14   1.4133582   4.0767833  -1.3898154
  14   1.4133585   4.0767834   4.0565978
  14  -2.6536066  -0.1247233  -2.7128345
  14  -2.6536063  -0.1247232   2.7335788
  14   2.7928068  -0.1247223  -2.7128342
  14   2.7928071  -0.1247222   2.7335791
  14  -1.3615238  -4.0412377  -1.3789936
  14  -1.3615234  -4.0412376   4.0674196
  14  -1.3615228   1.4051757  -1.3789935
  14  -1.3615224   1.4051758   4.0674197
  14   4.0848896  -4.0412367  -1.3789933
  14   4.0848899  -4.0412366   4.0674200
  14   4.0848906   1.4051767  -1.3789932
  14   4.0848909   1.4051768   4.0674200
  14  -2.6533401  -2.6441430  -0.0163541
  14  -2.6533391   2.8022704  -0.0163540
  14   2.7930733  -2.6441420  -0.0163538
  14   2.7930743   2.8022714  -0.0163537
  14  -1.4424938  -1.4397937  -3.9594041
  14  -1.4424935  -1.4397936   1.4870092
  14  -1.4424928   4.0066197  -3.9594040
  14  -1.4424925   4.0066198   1.4870093
  14   4.0039196  -1.4397927  -3.9594037
  14   4.0039199  -1.4397926   1.4870095
  14   4.0039206   4.0066207  -3.9594037
  14   4.0039209   4.0066208   1.4870096
ATOMS    3
  32   0.0298923   0.0338401   0.0044421
  14  -4.1711633  -4.1672615  -4.1960715
  14  -4.1711630  -4.1672614   1.2503418
  14  -4.1711623   1.2791519  -4.1960714
  14  -4.1711620   1.2791520   1.2503419
  14   1.2752501  -4.1672605  -4.1960712
  14   1.2752504  -4.1672604   1.2503421
  14   1.2752511   1.2791529  -4.1960711
  14   1.2752514   1.2791530   1.2503422
  14  -0.1592322  -2.6093351  -2.7082648
  14  -0.1592319  -2.6093350   2.7381485
  14  -0.1592312   2.8370783  -2.7082647
  14  -0.1592309   2.8370784   2.7381486
  14  -4.0187940  -1.3644293  -1.3935993
  14  -4.0187937  -1.3644292   4.0528140
  14  -4.0187930   4.0819841  -1.3935992
  14  -4.0187927   4.0819841   4.0528141
  14   1.4276194  -1.3644283  -1.3935990
  14   1.4276197  -1.3644282   4.0528143
  14   1.4276204   4.0819851  -1.3935989
  14   1.4276207   4.0819851   4.0528144
  14  -2.6226259  -0.1802403  -2.7082177
  14  -2.6226256  -0.1802402   2.7381955
  14   2.8237875  -0.1802393  -2.7082174
  14   2.8237878  -0.1802392   2.7381958
  14  -1.3527129  -4.0306176  -1.3779596
  14  -1.3527126  -4.0306175   4.0684537
  14  -1.3527119   1.4157958  -1.3779595
  14  -1.3527116   1.4157958   4.0684537
  14   4.0937005  -4.0306166  -1.3779593
  14   4.0937008  -4.0306165   4.0684540
  14   4.0937015   1.4157968  -1.3779592
  14   4.0937018   1.4157968   4.0684540
  14  -2.6222405  -2.6089497  -0.0236331
  14  -2.6222395   2.8374637  -0.0236330
  14   2.8241729  -2.6089487  -0.0236328
  14   2.8241739   2.8374647  -0.0236327
  14  -1.4697241  -1.4658222  -3.9217808
  14  -1.4697238  -1.4658222   1.5246324
  14  -1.4697231   3.9805912  -3.9217808
  14  -1.4697228   3.9805912   1.5246325
  14   3.9766893  -1.4658212  -3.9217805
  14   3.9766896  -1.4658212   1.5246327
  14   3.9766903   3.9805922  -3.9217805
  14   3.9766906   3.9805922   1.5246328
ATOMS    4
  32   0.0377935   0.0427844   0.0056163
  14  -4.1991986  -4.1942656  -4.2306907
  14  -4.1991983  -4.1942655   1.2157226
  14  -4.1991976   1.2521478  -4.2306906
  14  -4.1991973   1.2521479   1.2157226
  14   1.2472148  -4.1942646  -4.2306904
  14   1.2472151  -4.1942645   1.2157229
  14   1.2472158   1.2521488  -4.2306903
  14   1.2472161   1.2521489   1.2157230
  14  -0.2013192  -2.5792373  -2.7043156
  14  -0.2013189  -2.5792372   2.7420977
  14  -0.2013182   2.8671761  -2.7043155
  14  -0.2013179   2.8671762   2.7420978
  14  -4.0065554  -1.3599657  -1.3968459
  14  -4.0065551  -1.3599656   4.0495674
  14  -4.0065544   4.0864477  -1.3968458
  14  -4.0065541   4.0864478   4.0495675
  14   1.4398579  -1.3599646  -1.3968456
  14   1.4398583  -1.3599646   4.0495677
  14   1.4398589   4.0864487  -1.3968455
  14   1.4398593   4.0864488   4.0495678
  14  -2.5960411  -0.2278800  -2.7042561
  14  -2.5960407  -0.2278799   2.7421572
  14   2.8503723  -0.2278790  -2.7042558
  14   2.8503726  -0.2278789   2.7421575
  14  -1.3451522  -4.0215044  -1.3770723
  14  -1.3451519  -4.0215044   4.0693410
  14  -1.3451512   1.4249090  -1.3770722
  14  -1.3451509   1.4249090   4.0693410
  14   4.1012612  -4.0215034  -1.3770720
  14   4.1012615  -4.0215034   4.0693413
  14   4.1012622   1.4249100  -1.3770719
  14   4.1012625   1.4249100   4.0693413
  14  -2.5955537  -2.5787499  -0.0298793
  14  -2.5955527   2.8676635  -0.0298792
  14   2.8508597  -2.5787489  -0.0298790
  14   2.8508607   2.8676645  -0.0298789
  14  -1.4930906  -1.4881576  -3.8894960
  14  -1.4930903  -1.4881575   1.5569173
  14  -1.4930896   3.9582558  -3.8894959
  14  -1.4930893   3.9582559   1.5569173
  14   3.9533227  -1.4881566  -3.8894957
  14   3.9533230  -1.4881565   1.5569176
  14   3.9533237   3.9582568  -3.8894956
  14   3.9533240   3.9582569   1.5569176
ATOMS    5
  32   0.0440428   0.0498588   0.0065451
  14  -4.2213730  -4.2156243  -4.2580725
  14  -4.2213727  -4.2156243   1.1883407
  14  -4.2213720   1.2307890  -4.2580725
  14  -4.2213717   1.2307891   1.1883408
  14   1.2250404  -4.2156233  -4.2580722
  14   1.2250407  -4.2156233   1.1883410
  14   1.2250414   1.2307901  -4.2580722
  14   1.2250417   1.2307901   1.1883411
  14  -0.2346076  -2.5554317  -2.7011920
  14  -0.2346073  -2.5554316   2.7452213
  14  -0.2346066   2.8909817  -2.7011919
  14  -0.2346063   2.8909818   2.7452214
  14  -3.9968754  -1.3564351  -1.3994138
  14  -3.9968751  -1.3564351   4.0469995
  14  -3.9968744   4.0899783  -1.3994137
  14  -3.9968741   4.0899783   4.0469996
  14   1.4495379  -1.3564341  -1.3994135
  14   1.4495383  -1.3564341   4.0469998
  14   1.4495389   4.0899793  -1.3994134
  14   1.4495393   4.0899793   4.0469999
  14  -2.5750139  -0.2655603  -2.7011226
  14  -2.5750136  -0.2655602   2.7452907
  14   2.8713994  -0.2655593  -2.7011223
  14   2.8713997  -0.2655592   2.7452910
  14  -1.3391721  -4.0142964  -1.3763705
  14  -1.3391718  -4.0142963   4.0700428
  14  -1.3391711   1.4321170  -1.3763704
  14  -1.3391708   1.4321170   4.0700428
  14   4.1072413  -4.0142954  -1.3763702
  14   4.1072416  -4.0142953   4.0700431
  14   4.1072423   1.4321180  -1.3763701
  14   4.1072426   1.4321180   4.0700431
  14  -2.5744459  -2.5548636  -0.0348197
  14  -2.5744449   2.8915498  -0.0348196
  14   2.8719675  -2.5548626  -0.0348194
  14   2.8719685   2.8915508  -0.0348193
  14  -1.5115723  -1.5058236  -3.8639605
  14  -1.5115720  -1.5058235   1.5824527
  14  -1.5115713   3.9405898  -3.8639605
  14  -1.5115709   3.9405899   1.5824528
  14   3.9348411  -1.5058226  -3.8639602
  14   3.9348414  -1.5058225   1.5824531
  14   3.9348421   3.9405908  -3.8639601
  14   3.9348424   3.9405909   1.5824531
ATOMS    6
  32   0.0483672   0.0547541   0.0071878
  14  -4.2367172  -4.2304042  -4.2770203
  14  -4.2367169  -4.2304041   1.1693930
  14  -4.2367162   1.2160092  -4.2770202
  14  -4.2367159   1.2160093   1.1693931
  14   1.2096961  -4.2304032  -4.2770200
  14   1.2096964  -4.2304031   1.1693933
  14   1.2096971   1.2160102  -4.2770199
  14   1.2096974   1.2160103   1.1693934
  14  -0.2576426  -2.5389586  -2.6990305
  14  -0.2576423  -2.5389585   2.7473828
  14  -0.2576416   2.9074548  -2.6990304
  14  -0.2576413   2.9074548   2.7473828
  14  -3.9901771  -1.3539921  -1.4011907
  14  -3.9901767  -1.3539920   4.0452226
  14  -3.9901760   4.0924213  -1.4011906
  14  -3.9901757   4.0924214   4.0452227
  14   1.4562363  -1.3539911  -1.4011904
  14   1.4562366  -1.3539910   4.0452229
  14   1.4562373   4.0924223  -1.4011903
  14   1.4562376   4.0924224   4.0452230
  14  -2.5604636  -0.2916344  -2.6989543
  14  -2.5604633  -0.2916343   2.7474589
  14   2.8859498  -0.2916334  -2.6989540
  14   2.8859501  -0.2916333   2.7474593
  14  -1.3350340  -4.0093086  -1.3758849
  14  -1.3350337  -4.0093085   4.0705284
  14  -1.3350330   1.4371048  -1.3758848
  14  -1.3350327   1.4371049   4.0705285
  14   4.1113794  -4.0093076  -1.3758846
  14   4.1113797  -4.0093075   4.0705287
  14   4.1113804   1.4371058  -1.3758845
  14   4.1113807   1.4371059   4.0705288
  14  -2.5598397  -2.5383347  -0.0382383
  14  -2.5598387   2.9080787  -0.0382383
  14   2.8865737  -2.5383337  -0.0382380
  14   2.8865747   2.9080797  -0.0382379
  14  -1.5243612  -1.5180481  -3.8462904
  14  -1.5243609  -1.5180481   1.6001228
  14  -1.5243602   3.9283653  -3.8462904
  14  -1.5243599   3.9283653   1.6001229
  14   3.9220522  -1.5180471  -3.8462901
  14   3.9220525  -1.5180471   1.6001231
  14   3.9220532   3.9283663  -3.8462901
  14   3.9220535   3.9283663   1.6001232
ATOMS    7
  32   0.0505778   0.0572565   0.0075163
  14  -4.2445608  -4.2379592  -4.2867058
  14  -4.2445605  -4.2379591   1.1597075
  14  -4.2445598   1.2084542  -4.2867057
  14  -4.2445595   1.2084542   1.1597075
  14   1.2018526  -4.2379582  -4.2867055
  14   1.2018529  -4.2379581   1.1597078
  14   1.2018536   1.2084552  -4.2867054
  14   1.2018539   1.2084552   1.1597079
  14  -0.2694174  -2.5305381  -2.6979256
  14  -0.2694171  -2.5305380   2.7484876
  14  -0.2694164   2.9158753  -2.6979256
  14  -0.2694161   2.9158754   2.7484877
  14  -3.9867530  -1.3527433  -1.4020990
  14  -3.9867527  -1.3527432   4.0443143
  14  -3.9867520   4.0936701  -1.4020989
  14  -3.9867517   4.0936702   4.0443143
  14   1.4596603  -1.3527423  -1.4020987
  14   1.4596606  -1.3527422   4.0443146
  14   1.4596613   4.0936711  -1.4020986
  14   1.4596616   4.0936712   4.0443146
  14  -2.5530259  -0.3049626  -2.6978460
  14  -2.5530255  -0.3049626   2.7485673
  14   2.8933875  -0.3049616  -2.6978457
  14   2.8933878  -0.3049616   2.7485676
  14  -1.3329187  -4.0067590  -1.3756366
  14  -1.3329184  -4.0067589   4.0707766
  14  -1.3329177   1.4396544  -1.3756366
  14  -1.3329174   1.4396545   4.0707767
  14   4.1134947  -4.0067580  -1.3756363
  14   4.1134950  -4.0067579   4.0707769
  14   4.1134957   1.4396554  -1.3756363
  14   4.1134960   1.4396555   4.0707770
  14  -2.5523735  -2.5298857  -0.0399859
  14  -2.5523725   2.9165277  -0.0399858
  14   2.8940399  -2.5298847  -0.0399855
  14   2.8940409   2.9165287  -0.0399855
  14  -1.5308985  -1.5242970  -3.8372580
  14  -1.5308982  -1.5242969   1.6091552
  14  -1.5308975   3.9221164  -3.8372580
  14  -1.5308972   3.9221165   1.6091553
  14   3.9155148  -1.5242960  -3.8372577
  14   3.9155151  -1.5242959   1.6091556
  14   3.9155158   3.9221174  -3.8372576
  14   3.9155161   3.9221175   1.6091556
ATOMS    8
  32   0.0505778   0.0572565   0.0075163
  14  -4.2445608  -4.2379592  -4.2867058
  14  -4.2445605  -4.2379591   1.1597075
  14  -4.2445598   1.2084542  -4.2867057
  14  -4.2445595   1.2084542   1.1597075
  14   1.2018526  -4.2379582  -4.2867055
  14   1.2018529  -4.2379581   1.1597078
  14   1.2018536   1.2084552  -4.2867054
  14   1.2018539   1.2084552   1.1597079
  14  -0.2694174  -2.5305381  -2.6979256
  14  -0.2694171  -2.5305380   2.7484876
  14  -0.2694164   2.9158753  -2.6979256
  14  -0.2694161   2.9158754   2.7484877
  14  -3.9867530  -1.3527433  -1.4020990
  14  -3.9867527  -1.3527432   4.0443143
  14  -3.9867520   4.0936701  -1.4020989
  14  -3.9867517   4.0936702   4.0443143
  14   1.4596603  -1.3527423  -1.4020987
  14   1.4596606  -1.3527422   4.0443146
  14   1.4596613   4.0936711  -1.4020986
  14   1.4596616   4.0936712   4.0443146
  14  -2.5530259  -0.3049626  -2.6978460
  14  -2.5530255  -0.3049626   2.7485673
  14   2.8933875  -0.3049616  -2.6978457
  14   2.8933878  -0.3049616   2.7485676
  14  -1.3329187  -4.0067590  -1.3756366
  14  -1.3329184  -4.0067589   4.0707766
  14  -1.3329177   1.4396544  -1.3756366
  14  -1.3329174   1.4396545   4.0707767
  14   4.1134947  -4.0067580  -1.3756363
  14   4.1134950  -4.0067579   4.0707769
  14   4.1134957   1.4396554  -1.3756363
  14   4.1134960   1.4396555   4.0707770
  14  -2.5523735  -2.5298857  -0.0399859
  14  -2.5523725   2.9165277  -0.0399858
  14   2.8940399  -2.5298847  -0.0399855
  14   2.8940409   2.9165287  -0.0399855
  14  -1.5308985  -1.5242970  -3.8372580
  14  -1.5308982  -1.5242969   1.6091552
  14  -1.5308975   3.9221164  -3.8372580
  14  -1.5308972   3.9221165   1.6091553
  14   3.9155148  -1.5242960  -3.8372577
  14   3.9155151  -1.5242959   1.6091556
  14   3.9155158   3.9221174  -3.8372576
  14   3.9155161   3.9221175   1.6091556
ATOMS    9
  32   0.0483672   0.0547541   0.0071878
  14  -4.2367172  -4.2304042  -4.2770203
  14  -4.2367169  -4.2304041   1.1693930
  14  -4.2367162   1.2160092  -4.2770202
  14  -4.2367159   1.2160093   1.1693931
  14   1.2096961  -4.2304032  -4.2770200
  14   1.2096964  -4.2304031   1.1693933
  14   1.2096971   1.2160102  -4.2770199
  14   1.2096974   1.2160103   1.1693934
  14  -0.2576426  -2.5389586  -2.6990305
  14  -0.2576423  -2.5389585   2.7473828
  14  -0.2576416   2.9074548  -2.6990304
  14  -0.2576413   2.9074548   2.7473828
  14  -3.9901771  -1.3539921  -1.4011907
  14  -3.9901767  -1.3539920   4.0452226
  14  -3.9901760   4.0924213  -1.4011906
  14  -3.9901757   4.0924214   4.0452227
  14   1.4562363  -1.3539911  -1.4011904
  14   1.4562366  -1.3539910   4.0452229
  14   1.4562373   4.0924223  -1.4011903
  14   1.4562376   4.0924224   4.0452230
  14  -2.5604636  -0.2916344  -2.6989543
  14  -2.5604633  -0.2916343   2.7474589
  14   2.8859498  -0.2916334  -2.6989540
  14   2.8859501  -0.2916333   2.7474593
  14  -1.3350340  -4.0093086  -1.3758849
  14  -1.3350337  -4.0093085   4.0705284
  14  -1.3350330   1.4371048  -1.3758848
  14  -1.3350327   1.4371049   4.0705285
  14   4.1113794  -4.0093076  -1.3758846
  14   4.1113797  -4.0093075   4.0705287
  14   4.1113804   1.4371058  -1.3758845
  14   4.1113807   1.4371059   4.0705288
  14  -2.5598397  -2.5383347  -0.0382383
  14  -2.5598387   2.9080787  -0.0382383
  14   2.8865737  -2.5383337  -0.0382380
  14   2.8865747   2.9080797  -0.0382379
  14  -1.5243612  -1.5180481  -3.8462904
  14  -1.5243609  -1.5180481   1.6001228
  14  -1.5243602   3.9283653  -3.8462904
  14  -1.5243599   3.9283653   1.6001229
  14   3.9220522  -1.5180471  -3.8462901
  14   3.9220525  -1.5180471   1.6001231
  14   3.9220532   3.9283663  -3.8462901
  14   3.9220535   3.9283663   1.6001232
ATOMS   10
  32   0.0440428   0.0498588   0.0065451
  14  -4.2213730  -4.2156243  -4.2580725
  14  -4.2213727  -4.2156243   1.1883407
  14  -4.2213720   1.2307890  -4.2580725
  14  -4.2213717   1.2307891   1.1883408
  14   1.2250404  -4.2156233  -4.2580722
  14   1.2250407  -4.2156233   1.1883410
  14   1.2250414   1.2307901  -4.2580722
  14   1.2250417   1.2307901   1.1883411
  14  -0.2346076  -2.5554317  -2.7011920
  14  -0.2346073  -2.5554316   2.7452213
  14  -0.2346066   2.8909817  -2.7011919
  14  -0.2346063   2.8909818   2.7452214
  14  -3.9968754  -1.3564351  -1.3994138
  14  -3.9968751  -1.3564351   4.0469995
  14  -3.9968744   4.0899783  -1.3994137
  14  -3.9968741   4.0899783   4.0469996
  14   1.4495379  -1.3564341  -1.3994135
  14   1.4495383  -1.3564341   4.0469998
  14   1.4495389   4.0899793  -1.3994134
  14   1.4495393   4.0899793   4.0469999
  14  -2.5750139  -0.2655603  -2.7011226
  14  -2.5750136  -0.2655602   2.7452907
  14   2.8713994  -0.2655593  -2.7011223
  14   2.8713997  -0.2655592   2.7452910
  14  -1.3391721  -4.0142964  -1.3763705
  14  -1.3391718  -4.0142963   4.0700428
  14  -1.3391711   1.4321170  -1.3763704
  14  -1.3391708   1.4321170   4.0700428
  14   4.1072413  -4.0142954  -1.3763702
  14   4.1072416  -4.0142953   4.0700431
  14   4.1072423   1.4321180  -1.3763701
  14   4.1072426   1.4321180   4.0700431
  14  -2.5744459  -2.5548636  -0.0348197
  14  -2.5744449   2.8915498  -0.0348196
  14   2.8719675  -2.5548626  -0.0348194
  14   2.8719685   2.8915508  -0.0348193
  14  -1.5115723  -1.5058236  -3.8639605
  14  -1.5115720  -1.5058235   1.5824527
  14  -1.5115713   3.9405898  -3.8639605
  14  -1.5115709   3.9405899   1.5824528
  14   3.9348411  -1.5058226  -3.8639602
  14   3.9348414  -1.5058225   1.5824531
  14   3.9348421   3.9405908  -3.8639601
  14   3.9348424   3.9405909   1.5824531
ATOMS   11
  32   0.0377935   0.0427844   0.0056163
  14  -4.1991986  -4.1942656  -4.2306907
  14  -4.1991983  -4.1942655   1.2157226
  14  -4.1991976   1.2521478  -4.2306906
  14  -4.1991973   1.2521479   1.2157226
  14   1.2472148  -4.1942646  -4.2306904
  14   1.2472151  -4.1942645   1.2157229
  14   1.2472158   1.2521488  -4.2306903
  14   1.2472161   1.2521489   1.2157230
  14  -0.2013192  -2.5792373  -2.7043156
  14  -0.2013189  -2.5792372   2.7420977
  14  -0.2013182   2.8671761  -2.7043155
  14  -0.2013179   2.8671762   2.7420978
  14  -4.0065554  -1.3599657  -1.3968459
  14  -4.0065551  -1.3599656   4.0495674
  14  -4.0065544   4.0864477  -1.3968458
  14  -4.0065541   4.0864478   4.0495675
  14   1.4398579  -1.3599646  -1.3968456
  14   1.4398583  -1.3599646   4.0495677
  14   1.4398589   4.0864487  -1.3968455
  14   1.4398593   4.0864488   4.0495678
  14  -2.5960411  -0.2278800  -2.7042561
  14  -2.5960407  -0.2278799   2.7421572
  14   2.8503723  -0.2278790  -2.7042558
  14   2.8503726  -0.2278789   2.7421575
  14  -1.3451522  -4.0215044  -1.3770723
  14  -1.3451519  -4.0215044   4.0693410
  14  -1.3451512   1.4249090  -1.3770722
  14  -1.3451509   1.4249090   4.0693410
  14   4.1012612  -4.0215034  -1.3770720
  14   4.1012615  -4.0215034   4.0693413
  14   4.1012622   1.4249100  -1.3770719
  14   4.1012625   1.4249100   4.0693413
  14  -2.5955537  -2.5787499  -0.0298793
  14  -2.5955527   2.8676635  -0.0298792
  14   2.8508597  -2.5787489  -0.0298790
  14   2.8508607   2.8676645  -0.0298789
  14  -1.4930906  -1.4881576  -3.8894960
  14  -1.4930903  -1.4881575   1.5569173
  14  -1.4930896   3.9582558  -3.8894959
  14  -1.4930893   3.9582559   1.5569173
  14   3.9533227  -1.4881566  -3.8894957
  14   3.9533230  -1.4881565   1.5569176
  14   3.9533237   3.9582568  -3.8894956
  14   3.9533240   3.9582569   1.5569176
ATOMS   12
  32   0.0298923   0.0338401   0.0044421
  14  -4.1711633  -4.1672615  -4.1960715
  14  -4.1711630  -4.1672614   1.2503418
  14  -4.1711623   1.2791519  -4.1960714
  14  -4.1711620   1.2791520   1.2503419
  14   1.2752501  -4.1672605  -4.1960712
  14   1.2752504  -4.1672604   1.2503421
  14   1.2752511   1.2791529  -4.1960711
  14   1.2752514   1.2791530   1.2503422
  14  -0.1592322  -2.6093351  -2.7082648
  14  -0.1592319  -2.6093350   2.7381485
  14  -0.1592312   2.8370783  -2.7082647
  14  -0.1592309   2.8370784   2.7381486
  14  -4.0187940  -1.3644293  -1.3935993
  14  -4.0187937  -1.3644292   4.0528140
  14  -4.0187930   4.0819841  -1.3935992
  14  -4.0187927   4.0819841   4.0528141
  14   1.4276194  -1.3644283  -1.3935990
  14   1.4276197  -1.3644282   4.0528143
  14   1.4276204   4.0819851  -1.3935989
  14   1.4276207   4.0819851   4.0528144
  14  -2.6226259  -0.1802403  -2.7082177
  14  -2.6226256  -0.1802402   2.7381955
  14   2.8237875  -0.1802393  -2.7082174
  14   2.8237878  -0.1802392   2.7381958
  14  -1.3527129  -4.0306176  -1.3779596
  14  -1.3527126  -4.0306175   4.0684537
  14  -1.3527119   1.4157958  -1.3779595
  14  -1.3527116   1.4157958   4.0684537
  14   4.0937005  -4.0306166  -1.3779593
  14   4.0937008  -4.0306165   4.0684540
  14   4.0937015   1.4157968  -1.3779592
  14   4.0937018   1.4157968   4.0684540
  14  -2.6222405  -2.6089497  -0.0236331
  14  -2.6222395   2.8374637  -0.0236330
  14   2.8241729  -2.6089487  -0.0236328
  14   2.8241739   2.8374647  -0.0236327
  14  -1.4697241  -1.4658222  -3.9217808
  14  -1.4697238  -1.4658222   1.5246324
  14  -1.4697231   3.9805912  -3.9217808
  14  -1.4697228   3.9805912   1.5246325
  14   3.9766893  -1.4658212  -3.9217805
  14   3.9766896  -1.4658212   1.5246327
  14   3.9766903   3.9805922  -3.9217805
  14   3.9766906   3.9805922   1.5246328
ATOMS   13
  32   0.0206847   0.0234168   0.0030737
  14  -4.1384922  -4.1357921  -4.1557279
  14  -4.1384919  -4.1357921   1.2906854
  14  -4.1384912   1.3106212  -4.1557278
  14  -4.1384909   1.3106213   1.2906855
  14   1.3079212  -4.1357911  -4.1557276
  14   1.3079215  -4.1357911   1.2906857
  14   1.3079222   1.3106223  -4.1557275
  14   1.3079225   1.3106223   1.2906858
  14  -0.1101860  -2.6444096  -2.7128670
  14  -0.1101857  -2.6444095   2.7335463
  14  -0.1101850   2.8020038  -2.7128669
  14  -0.1101847   2.8020039   2.7335464
  14  -4.0330562  -1.3696311  -1.3898158
  14  -4.0330559  -1.3696310   4.0565975
  14  -4.0330552   4.0767823  -1.3898157
  14  -4.0330549   4.0767824   4.0565975
  14   1.4133572  -1.3696301  -1.3898155
  14   1.4133575  -1.3696300   4.0565978
  14   1.4133582   4.0767833  -1.3898154
  14   1.4133585   4.0767834   4.0565978
  14  -2.6536066  -0.1247233  -2.7128345
  14  -2.6536063  -0.1247232   2.7335788
  14   2.7928068  -0.1247223  -2.7128342
  14   2.7928071  -0.1247222   2.7335791
  14  -1.3615238  -4.0412377  -1.3789936
  14  -1.3615234  -4.0412376   4.0674196
  14  -1.3615228   1.4051757  -1.3789935
  14  -1.3615224   1.4051758   4.0674197
  14   4.0848896  -4.0412367  -1.3789933
  14   4.0848899  -4.0412366   4.0674200
  14   4.0848906   1.4051767  -1.3789932
  14   4.0848909   1.4051768   4.0674200
  14  -2.6533401  -2.6441430  -0.0163541
  14  -2.6533391   2.8022704  -0.0163540
  14   2.7930733  -2.6441420  -0.0163538
  14   2.7930743   2.8022714  -0.0163537
  14  -1.4424938  -1.4397937  -3.9594041
  14  -1.4424935  -1.4397936   1.4870092
  14  -1.4424928   4.0066197  -3.9594040
  14  -1.4424925   4.0066198   1.4870093
  14   4.0039196  -1.4397927  -3.9594037
  14   4.0039199  -1.4397926   1.4870095
  14   4.0039206   4.0066207  -3.9594037
  14   4.0039209   4.0066208   1.4870096
ATOMS   14
  32   0.0105731   0.0119702   0.0015709
  14  -4.1026133  -4.1012330  -4.1114231
  14  -4.1026130  -4.1012329   1.3349902
  14  -4.1026123   1.3451804  -4.1114230
  14  -4.1026120   1.3451805   1.3349902
  14   1.3438000  -4.1012320  -4.1114228
  14   1.3438003  -4.1012319   1.3349905
  14   1.3438010   1.3451814  -4.1114227
  14   1.3438013   1.3451815   1.3349905
  14  -0.0563242  -2.6829279  -2.7179210
  14  -0.0563239  -2.6829278   2.7284922
  14  -0.0563232   2.7634855  -2.7179210
  14  -0.0563229   2.7634856   2.7284923
  14  -4.0487188  -1.3753436  -1.3856609
  14  -4.0487185  -1.3753435   4.0607524
  14  -4.0487178   4.0710698  -1.3856608
  14  -4.0487175   4.0710699   4.0607525
  14   1.3976946  -1.3753426  -1.3856606
  14   1.3976949  -1.3753425   4.0607527
  14   1.3976956   4.0710708  -1.3856605
  14   1.3976959   4.0710709   4.0607528
  14  -2.6876292  -0.0637553  -2.7179045
  14  -2.6876289  -0.0637552   2.7285088
  14   2.7587842  -0.0637543  -2.7179042
  14   2.7587845  -0.0637542   2.7285091
  14  -1.3711997  -4.0529005  -1.3801292
  14  -1.3711994  -4.0529004   4.0662841
  14  -1.3711987   1.3935129  -1.3801291
  14  -1.3711984   1.3935130   4.0662842
  14   4.0752136  -4.0528995  -1.3801288
  14   4.0752139  -4.0528994   4.0662844
  14   4.0752146   1.3935139  -1.3801288
  14   4.0752149   1.3935140   4.0662845
  14  -2.6874932  -2.6827918  -0.0083604
  14  -2.6874922   2.7636216  -0.0083603
  14   2.7589202  -2.6827908  -0.0083601
  14   2.7589212   2.7636226  -0.0083600
  14  -1.4125899  -1.4112095  -4.0007213
  14  -1.4125896  -1.4112094   1.4456919
  14  -1.4125889   4.0352039  -4.0007213
  14  -1.4125886   4.0352040   1.4456920
  14   4.0338235  -1.4112085  -4.0007210
  14   4.0338238  -1.4112084   1.4456923
  14   4.0338245   4.0352049  -4.0007209
  14   4.0338248   4.0352050   1.4456923
ATOMS   15
  32  -0.0000007   0.0000004  -0.0000005
  14  -4.0650947  -4.0650944  -4.0650935
  14  -4.0650944  -4.0650943   1.3813197
  14  -4.0650937   1.3813190  -4.0650935
  14  -4.0650934   1.3813191   1.3813198
  14   1.3813187  -4.0650934  -4.0650932
  14   1.3813190  -4.0650933   1.3813200
  14   1.3813197   1.3813200  -4.0650932
  14   1.3813200   1.3813201   1.3813201
  14  -0.0000008  -2.7232066  -2.7232061
  14  -0.0000005  -2.7232065   2.7232072
  14   0.0000002   2.7232068  -2.7232060
  14   0.0000005   2.7232069   2.7232072
  14  -4.0650971  -1.3813171  -1.3813161
  14  -4.0650968  -1.3813170   4.0650972
  14  -4.0650961   4.0650963  -1.3813160
  14  -4.0650958   4.0650964   4.0650973
  14   1.3813162  -1.3813161  -1.3813157
  14   1.3813165  -1.3813160   4.0650975
  14   1.3813172   4.0650973  -1.3813157
  14   1.3813175   4.0650974   4.0650976
  14  -2.7232067  -0.0000010  -2.7232062
  14  -2.7232064  -0.0000009   2.7232070
  14   2.7232067   0.0000000  -2.7232059
  14   2.7232070   0.0000001   2.7232073
  14  -1.3813179  -4.0650963  -1.3813166
  14  -1.3813176  -4.0650962   4.0650967
  14  -1.3813169   1.3813171  -1.3813165
  14  -1.3813166   1.3813171   4.0650968
  14   4.0650954  -4.0650953  -1.3813163
  14   4.0650957  -4.0650952   4.0650970
  14   4.0650964   1.3813181  -1.3813162
  14   4.0650968   1.3813181   4.0650971
  14  -2.7232071  -2.7232070  -0.0000013
  14  -2.7232061   2.7232064  -0.0000013
  14   2.7232063  -2.7232060  -0.0000010
  14   2.7232073   2.7232074  -0.0000010
  14  -1.3813193  -1.3813190  -4.0439269
  14  -1.3813190  -1.3813189   1.4024864
  14  -1.3813183   4.0650944  -4.0439268
  14  -1.3813180   4.0650945   1.4024865
  14   4.0650940  -1.3813180  -4.0439266
  14   4.0650944  -1.3813179   1.4024867
  14   4.0650951   4.0650954  -4.0439265
  14   4.0650954   4.0650955   1.4024868
ATOMS   16
  32  -0.0105745  -0.0119694  -0.0015720
  14  -4.0275761  -4.0289558  -4.0187640
  14  -4.0275758  -4.0289557   1.4276493
  14  -4.0275751   1.4174576  -4.0187639
  14  -4.0275748   1.4174577   1.4276494
  14   1.4188373  -4.0289548  -4.0187636
  14   1.4188376  -4.0289547   1.4276496
  14   1.4188383   1.4174586  -4.0187636
  14   1.4188386   1.4174587   1.4276497
  14   0.0563227  -2.7634852  -2.7284912
  14   0.0563230  -2.7634852   2.7179221
  14   0.0563237   2.6829282  -2.7284911
  14   0.0563240   2.6829282   2.7179222
  14  -4.0814755  -1.3872907  -1.3769712
  14  -4.0814752  -1.3872906   4.0694420
  14  -4.0814745   4.0591227  -1.3769712
  14  -4.0814742   4.0591228   4.0694421
  14   1.3649379  -1.3872897  -1.3769709
  14   1.3649382  -1.3872896   4.0694423
  14   1.3649389   4.0591237  -1.3769709
  14   1.3649392   4.0591238   4.0694424
  14  -2.7587841   0.0637534  -2.7285080
  14  -2.7587838   0.0637535   2.7179053
  14   2.6876292   0.0637544  -2.7285077
  14   2.6876295   0.0637545   2.7179056
  14  -1.3914361  -4.0772922  -1.3825040
  14  -1.3914358  -4.0772921   4.0639092
  14  -1.3914351   1.3691212  -1.3825039
  14  -1.3914348   1.3691213   4.0639093
  14   4.0549772  -4.0772911  -1.3825037
  14   4.0549775  -4.0772911   4.0639096
  14   4.0549782   1.3691222  -1.3825036
  14   4.0549786   1.3691223   4.0639096
  14  -2.7589211  -2.7636222   0.0083577
  14  -2.7589201   2.6827912   0.0083578
  14   2.6874923  -2.7636212   0.0083580
  14   2.6874933   2.6827922   0.0083581
  14  -1.3500487  -1.3514284  -4.0871324
  14  -1.3500484  -1.3514283   1.3592808
  14  -1.3500477   4.0949850  -4.0871324
  14  -1.3500474   4.0949850   1.3592809
  14   4.0963646  -1.3514274  -4.0871321
  14   4.0963649  -1.3514273   1.3592811
  14   4.0963656   4.0949860  -4.0871321
  14   4.0963659   4.0949860   1.3592812
ATOMS   17
  32  -0.0206862  -0.0234160  -0.0030747
  14  -3.9916972  -3.9943967  -3.9744592
  14  -3.9916969  -3.9943966   1.4719541
  14  -3.9916962   1.4520167  -3.9744591
  14  -3.9916959   1.4520168   1.4719541