# --- AXSF block for ---- iev =    21  freq =     469.097095 cm-1
ANIMSTEPS   30
ATOMS    1
  32   0.0000123   0.0000141  -0.0000050
  14  -4.0417088  -4.0363627  -4.1173289
  14  -4.0417085  -4.0363626   1.3290843
  14  -4.0417078   1.4100507  -4.1173289
  14  -4.0417075   1.4100507   1.3290844
  14   1.4047046  -4.0363617  -4.1173286
  14   1.4047049  -4.0363616   1.3290846
  14   1.4047056   1.4100517  -4.1173285
  14   1.4047059   1.4100517   1.3290847
  14  -0.0000503  -2.6732832  -2.7266418
  14  -0.0000499  -2.6732832   2.7197714
  14  -0.0000493   2.7731301  -2.7266418
  14  -0.0000489   2.7731302   2.7197715
  14  -4.0885125  -1.4066028  -1.3794281
  14  -4.0885122  -1.4066027   4.0669852
  14  -4.0885115   4.0398106  -1.3794280
  14  -4.0885112   4.0398107   4.0669852
  14   1.3579009  -1.4066018  -1.3794278
  14   1.3579012  -1.4066017   4.0669855
  14   1.3579019   4.0398116  -1.3794277
  14   1.3579022   4.0398117   4.0669855
  14  -2.6695281  -0.0000560  -2.7197867
  14  -2.6695278  -0.0000560   2.7266266
  14   2.7768853  -0.0000550  -2.7197864
  14   2.7768856  -0.0000550   2.7266269
  14  -1.4081646  -4.0938575  -1.3832090
  14  -1.4081643  -4.0938574   4.0632043
  14  -1.4081636   1.3525559  -1.3832089
  14  -1.4081633   1.3525560   4.0632044
  14   4.0382488  -4.0938564  -1.3832087
  14   4.0382491  -4.0938564   4.0632046
  14   4.0382498   1.3525569  -1.3832086
  14   4.0382501   1.3525570   4.0632047
  14  -2.7768121  -2.7730567   0.0000151
  14  -2.7768111   2.6733567   0.0000151
  14   2.6696013  -2.7730557   0.0000154
  14   2.6696023   2.6733577   0.0000155
  14  -1.3544874  -1.3560628  -3.9916768
  14  -1.3544871  -1.3560627   1.4547365
  14  -1.3544864   4.0903506  -3.9916767
  14  -1.3544861   4.0903507   1.4547366
  14   4.0919260  -1.3560618  -3.9916765
  14   4.0919263  -1.3560617   1.4547368
  14   4.0919270   4.0903516  -3.9916764
  14   4.0919273   4.0903517   1.4547369
ATOMS    2
  32   0.0000247   0.0000272  -0.0000094
  14  -4.0193450  -4.0088868  -4.1672814
  14  -4.0193447  -4.0088867   1.2791319
  14  -4.0193440   1.4375266  -4.1672813
  14  -4.0193437   1.4375267   1.2791320
  14   1.4270684  -4.0088858  -4.1672811
  14   1.4270687  -4.0088857   1.2791322
  14   1.4270694   1.4375276  -4.1672810
  14   1.4270697   1.4375277   1.2791323
  14  -0.0000976  -2.6255418  -2.7299274
  14  -0.0000973  -2.6255418   2.7164859
  14  -0.0000966   2.8208716  -2.7299273
  14  -0.0000963   2.8208716   2.7164859
  14  -4.1109045  -1.4307833  -1.3776227
  14  -4.1109042  -1.4307832   4.0687906
  14  -4.1109035   4.0156301  -1.3776226
  14  -4.1109032   4.0156302   4.0687907
  14   1.3355089  -1.4307823  -1.3776224
  14   1.3355092  -1.4307822   4.0687909
  14   1.3355099   4.0156311  -1.3776223
  14   1.3355102   4.0156312   4.0687910
  14  -2.6181955  -0.0001087  -2.7165166
  14  -2.6181952  -0.0001086   2.7298966
  14   2.8282179  -0.0001077  -2.7165163
  14   2.8282182  -0.0001076   2.7298969
  14  -1.4338379  -4.1213616  -1.3850186
  14  -1.4338376  -4.1213615   4.0613946
  14  -1.4338369   1.3250518  -1.3850186
  14  -1.4338366   1.3250519   4.0613947
  14   4.0125754  -4.1213606  -1.3850183
  14   4.0125757  -4.1213605   4.0613949
  14   4.0125764   1.3250528  -1.3850182
  14   4.0125768   1.3250529   4.0613950
  14  -2.8280743  -2.8207277   0.0000308
  14  -2.8280733   2.6256857   0.0000308
  14   2.6183391  -2.8207267   0.0000311
  14   2.6183401   2.6256867   0.0000311
  14  -1.3288281  -1.3319104  -3.9417102
  14  -1.3288278  -1.3319103   1.5047030
  14  -1.3288271   4.1145030  -3.9417102
  14  -1.3288268   4.1145031   1.5047031
  14   4.1175852  -1.3319094  -3.9417099
  14   4.1175856  -1.3319093   1.5047034
  14   4.1175862   4.1145040  -3.9417098
  14   4.1175866   4.1145041   1.5047034
ATOMS    3
  32   0.0000359   0.0000391  -0.0000133
  14  -3.9989807  -3.9838673  -4.2127677
  14  -3.9989803  -3.9838673   1.2336455
  14  -3.9989797   1.4625460  -4.2127677
  14  -3.9989793   1.4625461   1.2336456
  14   1.4474327  -3.9838663  -4.2127674
  14   1.4474330  -3.9838663   1.2336458
  14   1.4474337   1.4625471  -4.2127673
  14   1.4474340   1.4625471   1.2336459
  14  -0.0001407  -2.5820688  -2.7329192
  14  -0.0001404  -2.5820687   2.7134941
  14  -0.0001397   2.8643446  -2.7329191
  14  -0.0001394   2.8643446   2.7134941
  14  -4.1312945  -1.4528019  -1.3759786
  14  -4.1312942  -1.4528018   4.0704346
  14  -4.1312935   3.9936115  -1.3759786
  14  -4.1312932   3.9936115   4.0704347
  14   1.3151189  -1.4528009  -1.3759783
  14   1.3151192  -1.4528008   4.0704349
  14   1.3151199   3.9936125  -1.3759782
  14   1.3151202   3.9936125   4.0704350
  14  -2.5714524  -0.0001567  -2.7135389
  14  -2.5714521  -0.0001566   2.7328743
  14   2.8749610  -0.0001557  -2.7135386
  14   2.8749613  -0.0001556   2.7328747
  14  -1.4572159  -4.1464067  -1.3866665
  14  -1.4572156  -4.1464066   4.0597468
  14  -1.4572149   1.3000067  -1.3866664
  14  -1.4572146   1.3000068   4.0597468
  14   3.9891975  -4.1464056  -1.3866662
  14   3.9891978  -4.1464056   4.0597471
  14   3.9891985   1.3000077  -1.3866661
  14   3.9891988   1.3000078   4.0597472
  14  -2.8747532  -2.8641366   0.0000450
  14  -2.8747522   2.5822768   0.0000451
  14   2.5716601  -2.8641356   0.0000453
  14   2.5716611   2.5822778   0.0000454
  14  -1.3054630  -1.3099174  -3.8962110
  14  -1.3054627  -1.3099174   1.5502022
  14  -1.3054620   4.1364960  -3.8962110
  14  -1.3054617   4.1364960   1.5502023
  14   4.1409504  -1.3099164  -3.8962107
  14   4.1409507  -1.3099164   1.5502025
  14   4.1409514   4.1364970  -3.8962107
  14   4.1409517   4.1364970   1.5502026
ATOMS    4
  32   0.0000456   0.0000493  -0.0000167
  14  -3.9815058  -3.9623979  -4.2518000
  14  -3.9815055  -3.9623979   1.1946133
  14  -3.9815048   1.4840155  -4.2517999
  14  -3.9815045   1.4840155   1.1946133
  14   1.4649076  -3.9623969  -4.2517997
  14   1.4649079  -3.9623969   1.1946136
  14   1.4649086   1.4840165  -4.2517996
  14   1.4649089   1.4840165   1.1946136
  14  -0.0001777  -2.5447642  -2.7354865
  14  -0.0001774  -2.5447641   2.7109267
  14  -0.0001767   2.9016492  -2.7354865
  14  -0.0001764   2.9016492   2.7109268
  14  -4.1487913  -1.4716963  -1.3745679
  14  -4.1487910  -1.4716962   4.0718454
  14  -4.1487903   3.9747171  -1.3745678
  14  -4.1487900   3.9747171   4.0718455
  14   1.2976220  -1.4716953  -1.3745676
  14   1.2976223  -1.4716952   4.0718457
  14   1.2976230   3.9747181  -1.3745675
  14   1.2976233   3.9747181   4.0718458
  14  -2.5313417  -0.0001979  -2.7109837
  14  -2.5313414  -0.0001978   2.7354295
  14   2.9150717  -0.0001969  -2.7109834
  14   2.9150720  -0.0001968   2.7354299
  14  -1.4772768  -4.1678981  -1.3880806
  14  -1.4772764  -4.1678980   4.0583327
  14  -1.4772758   1.2785153  -1.3880805
  14  -1.4772754   1.2785154   4.0583328
  14   3.9691366  -4.1678971  -1.3880802
  14   3.9691369  -4.1678970   4.0583330
  14   3.9691376   1.2785163  -1.3880802
  14   3.9691379   1.2785164   4.0583331
  14  -2.9148089  -2.9013861   0.0000573
  14  -2.9148079   2.5450272   0.0000574
  14   2.5316044  -2.9013851   0.0000576
  14   2.5316054   2.5450282   0.0000577
  14  -1.2854131  -1.2910450  -3.8571678
  14  -1.2854128  -1.2910450   1.5892455
  14  -1.2854121   4.1553684  -3.8571677
  14  -1.2854118   4.1553684   1.5892456
  14   4.1610002  -1.2910440  -3.8571675
  14   4.1610005  -1.2910440   1.5892458
  14   4.1610012   4.1553694  -3.8571674
  14   4.1610015   4.1553694   1.5892459
ATOMS    5
  32   0.0000533   0.0000574  -0.0000194
  14  -3.9676842  -3.9454169  -4.2826723
  14  -3.9676839  -3.9454168   1.1637409
  14  -3.9676832   1.5009965  -4.2826723
  14  -3.9676829   1.5009966   1.1637410
  14   1.4787292  -3.9454159  -4.2826720
  14   1.4787295  -3.9454158   1.1637412
  14   1.4787302   1.5009975  -4.2826719
  14   1.4787305   1.5009976   1.1637413
  14  -0.0002069  -2.5152584  -2.7375171
  14  -0.0002066  -2.5152583   2.7088962
  14  -0.0002059   2.9311550  -2.7375170
  14  -0.0002056   2.9311551   2.7088962
  14  -4.1626304  -1.4866407  -1.3734521
  14  -4.1626300  -1.4866406   4.0729612
  14  -4.1626293   3.9597727  -1.3734520
  14  -4.1626290   3.9597728   4.0729613
  14   1.2837830  -1.4866397  -1.3734518
  14   1.2837833  -1.4866396   4.0729615
  14   1.2837840   3.9597737  -1.3734517
  14   1.2837843   3.9597738   4.0729616
  14  -2.4996164  -0.0002304  -2.7089627
  14  -2.4996161  -0.0002303   2.7374506
  14   2.9467970  -0.0002294  -2.7089624
  14   2.9467973  -0.0002293   2.7374509
  14  -1.4931437  -4.1848966  -1.3891990
  14  -1.4931434  -4.1848965   4.0572143
  14  -1.4931427   1.2615168  -1.3891989
  14  -1.4931424   1.2615169   4.0572144
  14   3.9532696  -4.1848955  -1.3891987
  14   3.9532699  -4.1848955   4.0572146
  14   3.9532706   1.2615178  -1.3891986
  14   3.9532709   1.2615179   4.0572147
  14  -2.9464907  -2.9308485   0.0000670
  14  -2.9464897   2.5155649   0.0000671
  14   2.4999227  -2.9308475   0.0000673
  14   2.4999237   2.5155659   0.0000674
  14  -1.2695549  -1.2761180  -3.8262867
  14  -1.2695546  -1.2761180   1.6201265
  14  -1.2695539   4.1702953  -3.8262867
  14  -1.2695535   4.1702954   1.6201266
  14   4.1768585  -1.2761170  -3.8262864
  14   4.1768588  -1.2761170   1.6201268
  14   4.1768595   4.1702963  -3.8262864
  14   4.1768598   4.1702964   1.6201269
ATOMS    6
  32   0.0000586   0.0000630  -0.0000212
  14  -3.9581199  -3.9336663  -4.3040354
  14  -3.9581196  -3.9336662   1.1423779
  14  -3.9581189   1.5127471  -4.3040353
  14  -3.9581186   1.5127472   1.1423779
  14   1.4882935  -3.9336653  -4.3040351
  14   1.4882938  -3.9336652   1.1423782
  14   1.4882945   1.5127481  -4.3040350
  14   1.4882948   1.5127482   1.1423782
  14  -0.0002272  -2.4948409  -2.7389222
  14  -0.0002269  -2.4948408   2.7074910
  14  -0.0002262   2.9515725  -2.7389222
  14  -0.0002259   2.9515726   2.7074911
  14  -4.1722067  -1.4969820  -1.3726799
  14  -4.1722064  -1.4969819   4.0737333
  14  -4.1722057   3.9494314  -1.3726799
  14  -4.1722054   3.9494315   4.0737334
  14   1.2742067  -1.4969810  -1.3726796
  14   1.2742070  -1.4969809   4.0737336
  14   1.2742077   3.9494324  -1.3726795
  14   1.2742080   3.9494325   4.0737337
  14  -2.4776631  -0.0002530  -2.7075642
  14  -2.4776628  -0.0002529   2.7388491
  14   2.9687503  -0.0002520  -2.7075639
  14   2.9687506  -0.0002519   2.7388494
  14  -1.5041234  -4.1966592  -1.3899729
  14  -1.5041231  -4.1966591   4.0564403
  14  -1.5041224   1.2497542  -1.3899728
  14  -1.5041221   1.2497543   4.0564404
  14   3.9422900  -4.1966582  -1.3899726
  14   3.9422903  -4.1966581   4.0564407
  14   3.9422910   1.2497552  -1.3899725
  14   3.9422913   1.2497553   4.0564407
  14  -2.9684139  -2.9512358   0.0000737
  14  -2.9684129   2.4951776   0.0000738
  14   2.4779995  -2.9512348   0.0000740
  14   2.4780005   2.4951786   0.0000741
  14  -1.2585812  -1.2657888  -3.8049176
  14  -1.2585809  -1.2657888   1.6414956
  14  -1.2585802   4.1806245  -3.8049176
  14  -1.2585799   4.1806246   1.6414957
  14   4.1878322  -1.2657878  -3.8049173
  14   4.1878325  -1.2657878   1.6414959
  14   4.1878332   4.1806255  -3.8049173
  14   4.1878335   4.1806256   1.6414960
ATOMS    7
  32   0.0000613   0.0000658  -0.0000222
  14  -3.9532309  -3.9276597  -4.3149556
  14  -3.9532306  -3.9276596   1.1314577
  14  -3.9532299   1.5187537  -4.3149555
  14  -3.9532296   1.5187538   1.1314578
  14   1.4931825  -3.9276587  -4.3149553
  14   1.4931828  -3.9276586   1.1314580
  14   1.4931835   1.5187547  -4.3149552
  14   1.4931838   1.5187548   1.1314581
  14  -0.0002375  -2.4844041  -2.7396405
  14  -0.0002372  -2.4844040   2.7067728
  14  -0.0002365   2.9620093  -2.7396404
  14  -0.0002362   2.9620094   2.7067728
  14  -4.1771018  -1.5022681  -1.3722852
  14  -4.1771015  -1.5022680   4.0741280
  14  -4.1771008   3.9441453  -1.3722852
  14  -4.1771005   3.9441454   4.0741281
  14   1.2693115  -1.5022671  -1.3722849
  14   1.2693118  -1.5022670   4.0741283
  14   1.2693125   3.9441463  -1.3722849
  14   1.2693128   3.9441464   4.0741284
  14  -2.4664412  -0.0002645  -2.7068493
  14  -2.4664409  -0.0002644   2.7395639
  14   2.9799722  -0.0002635  -2.7068490
  14   2.9799725  -0.0002634   2.7395643
  14  -1.5097359  -4.2026719  -1.3903685
  14  -1.5097356  -4.2026718   4.0560447
  14  -1.5097349   1.2437415  -1.3903685
  14  -1.5097346   1.2437416   4.0560448
  14   3.9366775  -4.2026709  -1.3903682
  14   3.9366778  -4.2026708   4.0560450
  14   3.9366785   1.2437425  -1.3903682
  14   3.9366788   1.2437426   4.0560451
  14  -2.9796204  -2.9616572   0.0000771
  14  -2.9796194   2.4847561   0.0000772
  14   2.4667930  -2.9616562   0.0000774
  14   2.4667940   2.4847571   0.0000775
  14  -1.2529718  -1.2605089  -3.7939944
  14  -1.2529715  -1.2605088   1.6524189
  14  -1.2529708   4.1859045  -3.7939943
  14  -1.2529705   4.1859046   1.6524189
  14   4.1934416  -1.2605079  -3.7939941
  14   4.1934419  -1.2605078   1.6524192
  14   4.1934426   4.1859055  -3.7939940
  14   4.1934429   4.1859056   1.6524193
ATOMS    8
  32   0.0000613   0.0000658  -0.0000222
  14  -3.9532309  -3.9276597  -4.3149556
  14  -3.9532306  -3.9276596   1.1314577
  14  -3.9532299   1.5187537  -4.3149555
  14  -3.9532296   1.5187538   1.1314578
  14   1.4931825  -3.9276587  -4.3149553
  14   1.4931828  -3.9276586   1.1314580
  14   1.4931835   1.5187547  -4.3149552
  14   1.4931838   1.5187548   1.1314581
  14  -0.0002375  -2.4844041  -2.7396405
  14  -0.0002372  -2.4844040   2.7067728
  14  -0.0002365   2.9620093  -2.7396404
  14  -0.0002362   2.9620094   2.7067728
  14  -4.1771018  -1.5022681  -1.3722852
  14  -4.1771015  -1.5022680   4.0741280
  14  -4.1771008   3.9441453  -1.3722852
  14  -4.1771005   3.9441454   4.0741281
  14   1.2693115  -1.5022671  -1.3722849
  14   1.2693118  -1.5022670   4.0741283
  14   1.2693125   3.9441463  -1.3722849
  14   1.2693128   3.9441464   4.0741284
  14  -2.4664412  -0.0002645  -2.7068493
  14  -2.4664409  -0.0002644   2.7395639
  14   2.9799722  -0.0002635  -2.7068490
  14   2.9799725  -0.0002634   2.7395643
  14  -1.5097359  -4.2026719  -1.3903685
  14  -1.5097356  -4.2026718   4.0560447
  14  -1.5097349   1.2437415  -1.3903685
  14  -1.5097346   1.2437416   4.0560448
  14   3.9366775  -4.2026709  -1.3903682
  14   3.9366778  -4.2026708   4.0560450
  14   3.9366785   1.2437425  -1.3903682
  14   3.9366788   1.2437426   4.0560451
  14  -2.9796204  -2.9616572   0.0000771
  14  -2.9796194   2.4847561   0.0000772
  14   2.4667930  -2.9616562   0.0000774
  14   2.4667940   2.4847571   0.0000775
  14  -1.2529718  -1.2605089  -3.7939944
  14  -1.2529715  -1.2605088   1.6524189
  14  -1.2529708   4.1859045  -3.7939943
  14  -1.2529705   4.1859046   1.6524189
  14   4.1934416  -1.2605079  -3.7939941
  14   4.1934419  -1.2605078   1.6524192
  14   4.1934426   4.1859055  -3.7939940
  14   4.1934429   4.1859056   1.6524193
ATOMS    9
  32   0.0000586   0.0000630  -0.0000212
  14  -3.9581199  -3.9336663  -4.3040354
  14  -3.9581196  -3.9336662   1.1423779
  14  -3.9581189   1.5127471  -4.3040353
  14  -3.9581186   1.5127472   1.1423779
  14   1.4882935  -3.9336653  -4.3040351
  14   1.4882938  -3.9336652   1.1423782
  14   1.4882945   1.5127481  -4.3040350
  14   1.4882948   1.5127482   1.1423782
  14  -0.0002272  -2.4948409  -2.7389222
  14  -0.0002269  -2.4948408   2.7074910
  14  -0.0002262   2.9515725  -2.7389222
  14  -0.0002259   2.9515726   2.7074911
  14  -4.1722067  -1.4969820  -1.3726799
  14  -4.1722064  -1.4969819   4.0737333
  14  -4.1722057   3.9494314  -1.3726799
  14  -4.1722054   3.9494315   4.0737334
  14   1.2742067  -1.4969810  -1.3726796
  14   1.2742070  -1.4969809   4.0737336
  14   1.2742077   3.9494324  -1.3726795
  14   1.2742080   3.9494325   4.0737337
  14  -2.4776631  -0.0002530  -2.7075642
  14  -2.4776628  -0.0002529   2.7388491
  14   2.9687503  -0.0002520  -2.7075639
  14   2.9687506  -0.0002519   2.7388494
  14  -1.5041234  -4.1966592  -1.3899729
  14  -1.5041231  -4.1966591   4.0564403
  14  -1.5041224   1.2497542  -1.3899728
  14  -1.5041221   1.2497543   4.0564404
  14   3.9422900  -4.1966582  -1.3899726
  14   3.9422903  -4.1966581   4.0564407
  14   3.9422910   1.2497552  -1.3899725
  14   3.9422913   1.2497553   4.0564407
  14  -2.9684139  -2.9512358   0.0000737
  14  -2.9684129   2.4951776   0.0000738
  14   2.4779995  -2.9512348   0.0000740
  14   2.4780005   2.4951786   0.0000741
  14  -1.2585812  -1.2657888  -3.8049176
  14  -1.2585809  -1.2657888   1.6414956
  14  -1.2585802   4.1806245  -3.8049176
  14  -1.2585799   4.1806246   1.6414957
  14   4.1878322  -1.2657878  -3.8049173
  14   4.1878325  -1.2657878   1.6414959
  14   4.1878332   4.1806255  -3.8049173
  14   4.1878335   4.1806256   1.6414960
ATOMS   10
  32   0.0000533   0.0000574  -0.0000194
  14  -3.9676842  -3.9454169  -4.2826723
  14  -3.9676839  -3.9454168   1.1637409
  14  -3.9676832   1.5009965  -4.2826723
  14  -3.9676829   1.5009966   1.1637410
  14   1.4787292  -3.9454159  -4.2826720
  14   1.4787295  -3.9454158   1.1637412
  14   1.4787302   1.5009975  -4.2826719
  14   1.4787305   1.5009976   1.1637413
  14  -0.0002069  -2.5152584  -2.7375171
  14  -0.0002066  -2.5152583   2.7088962
  14  -0.0002059   2.9311550  -2.7375170
  14  -0.0002056   2.9311551   2.7088962
  14  -4.1626304  -1.4866407  -1.3734521
  14  -4.1626300  -1.4866406   4.0729612
  14  -4.1626293   3.9597727  -1.3734520
  14  -4.1626290   3.9597728   4.0729613
  14   1.2837830  -1.4866397  -1.3734518
  14   1.2837833  -1.4866396   4.0729615
  14   1.2837840   3.9597737  -1.3734517
  14   1.2837843   3.9597738   4.0729616
  14  -2.4996164  -0.0002304  -2.7089627
  14  -2.4996161  -0.0002303   2.7374506
  14   2.9467970  -0.0002294  -2.7089624
  14   2.9467973  -0.0002293   2.7374509
  14  -1.4931437  -4.1848966  -1.3891990
  14  -1.4931434  -4.1848965   4.0572143
  14  -1.4931427   1.2615168  -1.3891989
  14  -1.4931424   1.2615169   4.0572144
  14   3.9532696  -4.1848955  -1.3891987
  14   3.9532699  -4.1848955   4.0572146
  14   3.9532706   1.2615178  -1.3891986
  14   3.9532709   1.2615179   4.0572147
  14  -2.9464907  -2.9308485   0.0000670
  14  -2.9464897   2.5155649   0.0000671
  14   2.4999227  -2.9308475   0.0000673
  14   2.4999237   2.5155659   0.0000674
  14  -1.2695549  -1.2761180  -3.8262867
  14  -1.2695546  -1.2761180   1.6201265
  14  -1.2695539   4.1702953  -3.8262867
  14  -1.2695535   4.1702954   1.6201266
  14   4.1768585  -1.2761170  -3.8262864
  14   4.1768588  -1.2761170   1.6201268
  14   4.1768595   4.1702963  -3.8262864
  14   4.1768598   4.1702964   1.6201269
ATOMS   11
  32   0.0000456   0.0000493  -0.0000167
  14  -3.9815058  -3.9623979  -4.2518000
  14  -3.9815055  -3.9623979   1.1946133
  14  -3.9815048   1.4840155  -4.2517999
  14  -3.9815045   1.4840155   1.1946133
  14   1.4649076  -3.9623969  -4.2517997
  14   1.4649079  -3.9623969   1.1946136
  14   1.4649086   1.4840165  -4.2517996
  14   1.4649089   1.4840165   1.1946136
  14  -0.0001777  -2.5447642  -2.7354865
  14  -0.0001774  -2.5447641   2.7109267
  14  -0.0001767   2.9016492  -2.7354865
  14  -0.0001764   2.9016492   2.7109268
  14  -4.1487913  -1.4716963  -1.3745679
  14  -4.1487910  -1.4716962   4.0718454
  14  -4.1487903   3.9747171  -1.3745678
  14  -4.1487900   3.9747171   4.0718455
  14   1.2976220  -1.4716953  -1.3745676
  14   1.2976223  -1.4716952   4.0718457
  14   1.2976230   3.9747181  -1.3745675
  14   1.2976233   3.9747181   4.0718458
  14  -2.5313417  -0.0001979  -2.7109837
  14  -2.5313414  -0.0001978   2.7354295
  14   2.9150717  -0.0001969  -2.7109834
  14   2.9150720  -0.0001968   2.7354299
  14  -1.4772768  -4.1678981  -1.3880806
  14  -1.4772764  -4.1678980   4.0583327
  14  -1.4772758   1.2785153  -1.3880805
  14  -1.4772754   1.2785154   4.0583328
  14   3.9691366  -4.1678971  -1.3880802
  14   3.9691369  -4.1678970   4.0583330
  14   3.9691376   1.2785163  -1.3880802
  14   3.9691379   1.2785164   4.0583331
  14  -2.9148089  -2.9013861   0.0000573
  14  -2.9148079   2.5450272   0.0000574
  14   2.5316044  -2.9013851   0.0000576
  14   2.5316054   2.5450282   0.0000577
  14  -1.2854131  -1.2910450  -3.8571678
  14  -1.2854128  -1.2910450   1.5892455
  14  -1.2854121   4.1553684  -3.8571677
  14  -1.2854118   4.1553684   1.5892456
  14   4.1610002  -1.2910440  -3.8571675
  14   4.1610005  -1.2910440   1.5892458
  14   4.1610012   4.1553694  -3.8571674
  14   4.1610015   4.1553694   1.5892459
ATOMS   12
  32   0.0000359   0.0000391  -0.0000133
  14  -3.9989807  -3.9838673  -4.2127677
  14  -3.9989803  -3.9838673   1.2336455
  14  -3.9989797   1.4625460  -4.2127677
  14  -3.9989793   1.4625461   1.2336456
  14   1.4474327  -3.9838663  -4.2127674
  14   1.4474330  -3.9838663   1.2336458
  14   1.4474337   1.4625471  -4.2127673
  14   1.4474340   1.4625471   1.2336459
  14  -0.0001407  -2.5820688  -2.7329192
  14  -0.0001404  -2.5820687   2.7134941
  14  -0.0001397   2.8643446  -2.7329191
  14  -0.0001394   2.8643446   2.7134941
  14  -4.1312945  -1.4528019  -1.3759786
  14  -4.1312942  -1.4528018   4.0704346
  14  -4.1312935   3.9936115  -1.3759786
  14  -4.1312932   3.9936115   4.0704347
  14   1.3151189  -1.4528009  -1.3759783
  14   1.3151192  -1.4528008   4.0704349
  14   1.3151199   3.9936125  -1.3759782
  14   1.3151202   3.9936125   4.0704350
  14  -2.5714524  -0.0001567  -2.7135389
  14  -2.5714521  -0.0001566   2.7328743
  14   2.8749610  -0.0001557  -2.7135386
  14   2.8749613  -0.0001556   2.7328747
  14  -1.4572159  -4.1464067  -1.3866665
  14  -1.4572156  -4.1464066   4.0597468
  14  -1.4572149   1.3000067  -1.3866664
  14  -1.4572146   1.3000068   4.0597468
  14   3.9891975  -4.1464056  -1.3866662
  14   3.9891978  -4.1464056   4.0597471
  14   3.9891985   1.3000077  -1.3866661
  14   3.9891988   1.3000078   4.0597472
  14  -2.8747532  -2.8641366   0.0000450
  14  -2.8747522   2.5822768   0.0000451
  14   2.5716601  -2.8641356   0.0000453
  14   2.5716611   2.5822778   0.0000454
  14  -1.3054630  -1.3099174  -3.8962110
  14  -1.3054627  -1.3099174   1.5502022
  14  -1.3054620   4.1364960  -3.8962110
  14  -1.3054617   4.1364960   1.5502023
  14   4.1409504  -1.3099164  -3.8962107
  14   4.1409507  -1.3099164   1.5502025
  14   4.1409514   4.1364970  -3.8962107
  14   4.1409517   4.1364970   1.5502026
ATOMS   13
  32   0.0000247   0.0000272  -0.0000094
  14  -4.0193450  -4.0088868  -4.1672814
  14  -4.0193447  -4.0088867   1.2791319
  14  -4.0193440   1.4375266  -4.1672813
  14  -4.0193437   1.4375267   1.2791320
  14   1.4270684  -4.0088858  -4.1672811
  14   1.4270687  -4.0088857   1.2791322
  14   1.4270694   1.4375276  -4.1672810
  14   1.4270697   1.4375277   1.2791323
  14  -0.0000976  -2.6255418  -2.7299274
  14  -0.0000973  -2.6255418   2.7164859
  14  -0.0000966   2.8208716  -2.7299273
  14  -0.0000963   2.8208716   2.7164859
  14  -4.1109045  -1.4307833  -1.3776227
  14  -4.1109042  -1.4307832   4.0687906
  14  -4.1109035   4.0156301  -1.3776226
  14  -4.1109032   4.0156302   4.0687907
  14   1.3355089  -1.4307823  -1.3776224
  14   1.3355092  -1.4307822   4.0687909
  14   1.3355099   4.0156311  -1.3776223
  14   1.3355102   4.0156312   4.0687910
  14  -2.6181955  -0.0001087  -2.7165166
  14  -2.6181952  -0.0001086   2.7298966
  14   2.8282179  -0.0001077  -2.7165163
  14   2.8282182  -0.0001076   2.7298969
  14  -1.4338379  -4.1213616  -1.3850186
  14  -1.4338376  -4.1213615   4.0613946
  14  -1.4338369   1.3250518  -1.3850186
  14  -1.4338366   1.3250519   4.0613947
  14   4.0125754  -4.1213606  -1.3850183
  14   4.0125757  -4.1213605   4.0613949
  14   4.0125764   1.3250528  -1.3850182
  14   4.0125768   1.3250529   4.0613950
  14  -2.8280743  -2.8207277   0.0000308
  14  -2.8280733   2.6256857   0.0000308
  14   2.6183391  -2.8207267   0.0000311
  14   2.6183401   2.6256867   0.0000311
  14  -1.3288281  -1.3319104  -3.9417102
  14  -1.3288278  -1.3319103   1.5047030
  14  -1.3288271   4.1145030  -3.9417102
  14  -1.3288268   4.1145031   1.5047031
  14   4.1175852  -1.3319094  -3.9417099
  14   4.1175856  -1.3319093   1.5047034
  14   4.1175862   4.1145040  -3.9417098
  14   4.1175866   4.1145041   1.5047034
ATOMS   14
  32   0.0000123   0.0000141  -0.0000050
  14  -4.0417088  -4.0363627  -4.1173289
  14  -4.0417085  -4.0363626   1.3290843
  14  -4.0417078   1.4100507  -4.1173289
  14  -4.0417075   1.4100507   1.3290844
  14   1.4047046  -4.0363617  -4.1173286
  14   1.4047049  -4.0363616   1.3290846
  14   1.4047056   1.4100517  -4.1173285
  14   1.4047059   1.4100517   1.3290847
  14  -0.0000503  -2.6732832  -2.7266418
  14  -0.0000499  -2.6732832   2.7197714
  14  -0.0000493   2.7731301  -2.7266418
  14  -0.0000489   2.7731302   2.7197715
  14  -4.0885125  -1.4066028  -1.3794281
  14  -4.0885122  -1.4066027   4.0669852
  14  -4.0885115   4.0398106  -1.3794280
  14  -4.0885112   4.0398107   4.0669852
  14   1.3579009  -1.4066018  -1.3794278
  14   1.3579012  -1.4066017   4.0669855
  14   1.3579019   4.0398116  -1.3794277
  14   1.3579022   4.0398117   4.0669855
  14  -2.6695281  -0.0000560  -2.7197867
  14  -2.6695278  -0.0000560   2.7266266
  14   2.7768853  -0.0000550  -2.7197864
  14   2.7768856  -0.0000550   2.7266269
  14  -1.4081646  -4.0938575  -1.3832090
  14  -1.4081643  -4.0938574   4.0632043
  14  -1.4081636   1.3525559  -1.3832089
  14  -1.4081633   1.3525560   4.0632044
  14   4.0382488  -4.0938564  -1.3832087
  14   4.0382491  -4.0938564   4.0632046
  14   4.0382498   1.3525569  -1.3832086
  14   4.0382501   1.3525570   4.0632047
  14  -2.7768121  -2.7730567   0.0000151
  14  -2.7768111   2.6733567   0.0000151
  14   2.6696013  -2.7730557   0.0000154
  14   2.6696023   2.6733577   0.0000155
  14  -1.3544874  -1.3560628  -3.9916768
  14  -1.3544871  -1.3560627   1.4547365
  14  -1.3544864   4.0903506  -3.9916767
  14  -1.3544861   4.0903507   1.4547366
  14   4.0919260  -1.3560618  -3.9916765
  14   4.0919263  -1.3560617   1.4547368
  14   4.0919270   4.0903516  -3.9916764
  14   4.0919273   4.0903517   1.4547369
ATOMS   15
  32  -0.0000007   0.0000004  -0.0000005
  14  -4.0650947  -4.0650944  -4.0650935
  14  -4.0650944  -4.0650943   1.3813197
  14  -4.0650937   1.3813190  -4.0650935
  14  -4.0650934   1.3813191   1.3813198
  14   1.3813187  -4.0650934  -4.0650932
  14   1.3813190  -4.0650933   1.3813200
  14   1.3813197   1.3813200  -4.0650932
  14   1.3813200   1.3813201   1.3813201
  14  -0.0000008  -2.7232066  -2.7232061
  14  -0.0000005  -2.7232065   2.7232072
  14   0.0000002   2.7232068  -2.7232060
  14   0.0000005   2.7232069   2.7232072
  14  -4.0650971  -1.3813171  -1.3813161
  14  -4.0650968  -1.3813170   4.0650972
  14  -4.0650961   4.0650963  -1.3813160
  14  -4.0650958   4.0650964   4.0650973
  14   1.3813162  -1.3813161  -1.3813157
  14   1.3813165  -1.3813160   4.0650975
  14   1.3813172   4.0650973  -1.3813157
  14   1.3813175   4.0650974   4.0650976
  14  -2.7232067  -0.0000010  -2.7232062
  14  -2.7232064  -0.0000009   2.7232070
  14   2.7232067   0.0000000  -2.7232059
  14   2.7232070   0.0000001   2.7232073
  14  -1.3813179  -4.0650963  -1.3813166
  14  -1.3813176  -4.0650962   4.0650967
  14  -1.3813169   1.3813171  -1.3813165
  14  -1.3813166   1.3813171   4.0650968
  14   4.0650954  -4.0650953  -1.3813163
  14   4.0650957  -4.0650952   4.0650970
  14   4.0650964   1.3813181  -1.3813162
  14   4.0650968   1.3813181   4.0650971
  14  -2.7232071  -2.7232070  -0.0000013
  14  -2.7232061   2.7232064  -0.0000013
  14   2.7232063  -2.7232060  -0.0000010
  14   2.7232073   2.7232074  -0.0000009
  14  -1.3813193  -1.3813190  -4.0439269
  14  -1.3813190  -1.3813189   1.4024864
  14  -1.3813183   4.0650944  -4.0439268
  14  -1.3813180   4.0650945   1.4024865
  14   4.0650940  -1.3813180  -4.0439266
  14   4.0650944  -1.3813179   1.4024867
  14   4.0650951   4.0650954  -4.0439265
  14   4.0650954   4.0650955   1.4024868
ATOMS   16
  32  -0.0000137  -0.0000133   0.0000040
  14  -4.0884806  -4.0938261  -4.0128581
  14  -4.0884803  -4.0938260   1.4335551
  14  -4.0884796   1.3525873  -4.0128581
  14  -4.0884793   1.3525874   1.4335552
  14   1.3579327  -4.0938251  -4.0128578
  14   1.3579331  -4.0938250   1.4335554
  14   1.3579337   1.3525883  -4.0128578
  14   1.3579341   1.3525884   1.4335555
  14   0.0000487  -2.7731299  -2.7197704
  14   0.0000490  -2.7731298   2.7266429
  14   0.0000497   2.6732835  -2.7197703
  14   0.0000500   2.6732836   2.7266430
  14  -4.0416818  -1.3560315  -1.3832040
  14  -4.0416815  -1.3560314   4.0632093
  14  -4.0416808   4.0903819  -1.3832039
  14  -4.0416805   4.0903820   4.0632093
  14   1.4047316  -1.3560305  -1.3832037
  14   1.4047319  -1.3560304   4.0632096
  14   1.4047326   4.0903829  -1.3832036
  14   1.4047329   4.0903830   4.0632096
  14  -2.7768853   0.0000541  -2.7266258
  14  -2.7768850   0.0000542   2.7197875
  14   2.6695281   0.0000551  -2.7266255
  14   2.6695284   0.0000552   2.7197878
  14  -1.3544713  -4.0363352  -1.3794242
  14  -1.3544710  -4.0363351   4.0669891
  14  -1.3544703   1.4100782  -1.3794241
  14  -1.3544700   1.4100783   4.0669891
  14   4.0919421  -4.0363342  -1.3794239
  14   4.0919424  -4.0363341   4.0669894
  14   4.0919431   1.4100792  -1.3794238
  14   4.0919434   1.4100793   4.0669894
  14  -2.6696022  -2.6733573  -0.0000177
  14  -2.6696012   2.7730561  -0.0000177
  14   2.7768112  -2.6733563  -0.0000174
  14   2.7768122   2.7730571  -0.0000174
  14  -1.4081513  -1.4065751  -4.0961770
  14  -1.4081510  -1.4065751   1.3502363
  14  -1.4081503   4.0398382  -4.0961769
  14  -1.4081499   4.0398383   1.3502363
  14   4.0382621  -1.4065741  -4.0961767
  14   4.0382624  -1.4065741   1.3502366
  14   4.0382631   4.0398392  -4.0961766
  14   4.0382634   4.0398393   1.3502367
ATOMS   17
  32  -0.0000261  -0.0000264   0.0000083
  14  -4.1108445  -4.1213020  -3.9629057
  14  -4.1108442  -4.1213020   1.4835076
  14  -4.1108435   1.3251114  -3.9629056
  14  -4.1108432   1.3251114   1.4835077