# --- AXSF block for ---- iev =    14  freq =     409.289631 cm-1
ANIMSTEPS   30
ATOMS    1
  32  -0.0000011  -0.0000004  -0.0000005
  14  -4.0136961  -4.1171957  -4.0643250
  14  -4.0136958  -4.1171956   1.3820883
  14  -4.0136951   1.3292177  -4.0643249
  14  -4.0136948   1.3292177   1.3820884
  14   1.4327173  -4.1171947  -4.0643247
  14   1.4327176  -4.1171946   1.3820886
  14   1.4327183   1.3292187  -4.0643246
  14   1.4327186   1.3292187   1.3820887
  14   0.0000008  -2.7232208  -2.7231833
  14   0.0000011  -2.7232207   2.7232299
  14   0.0000018   2.7231926  -2.7231833
  14   0.0000021   2.7231927   2.7232300
  14  -4.0137132  -1.3292012  -1.3820832
  14  -4.0137128  -1.3292011   4.0643301
  14  -4.0137121   4.1172122  -1.3820831
  14  -4.0137118   4.1172123   4.0643302
  14   1.4327002  -1.3292001  -1.3820829
  14   1.4327005  -1.3292001   4.0643304
  14   1.4327012   4.1172132  -1.3820828
  14   1.4327015   4.1172133   4.0643305
  14  -2.7232008   0.0000102  -2.7232282
  14  -2.7232005   0.0000103   2.7231850
  14   2.7232126   0.0000112  -2.7232279
  14   2.7232129   0.0000113   2.7231854
  14  -1.4327166  -4.1171977  -1.3820866
  14  -1.4327163  -4.1171976   4.0643267
  14  -1.4327156   1.3292157  -1.3820865
  14  -1.4327153   1.3292158   4.0643267
  14   4.0136968  -4.1171966  -1.3820863
  14   4.0136971  -4.1171966   4.0643270
  14   4.0136978   1.3292167  -1.3820862
  14   4.0136981   1.3292168   4.0643270
  14  -2.7232051  -2.7232291  -0.0000017
  14  -2.7232041   2.7231843  -0.0000016
  14   2.7232083  -2.7232281  -0.0000014
  14   2.7232093   2.7231853  -0.0000013
  14  -1.4327180  -1.3292030  -4.0431589
  14  -1.4327177  -1.3292029   1.4032544
  14  -1.4327170   4.1172104  -4.0431588
  14  -1.4327166   4.1172105   1.4032544
  14   4.0136954  -1.3292020  -4.0431586
  14   4.0136957  -1.3292019   1.4032547
  14   4.0136964   4.1172114  -4.0431585
  14   4.0136967   4.1172115   1.4032547
ATOMS    2
  32  -0.0000015  -0.0000012  -0.0000005
  14  -3.9645438  -4.1670200  -4.0635900
  14  -3.9645435  -4.1670199   1.3828233
  14  -3.9645428   1.2793934  -4.0635899
  14  -3.9645425   1.2793935   1.3828233
  14   1.4818696  -4.1670190  -4.0635897
  14   1.4818699  -4.1670189   1.3828236
  14   1.4818706   1.2793944  -4.0635896
  14   1.4818709   1.2793945   1.3828237
  14   0.0000022  -2.7232344  -2.7231615
  14   0.0000025  -2.7232344   2.7232517
  14   0.0000032   2.7231790  -2.7231615
  14   0.0000035   2.7231790   2.7232518
  14  -3.9645749  -1.2793629  -1.3828167
  14  -3.9645746  -1.2793628   4.0635965
  14  -3.9645739   4.1670505  -1.3828167
  14  -3.9645736   4.1670506   4.0635966
  14   1.4818385  -1.2793619  -1.3828164
  14   1.4818388  -1.2793618   4.0635968
  14   1.4818395   4.1670515  -1.3828163
  14   1.4818398   4.1670516   4.0635969
  14  -2.7231952   0.0000209  -2.7232493
  14  -2.7231949   0.0000209   2.7231640
  14   2.7232182   0.0000219  -2.7232489
  14   2.7232185   0.0000219   2.7231643
  14  -1.4818688  -4.1670219  -1.3828230
  14  -1.4818685  -4.1670218   4.0635903
  14  -1.4818678   1.2793915  -1.3828229
  14  -1.4818675   1.2793916   4.0635904
  14   3.9645445  -4.1670209  -1.3828227
  14   3.9645448  -4.1670208   4.0635906
  14   3.9645455   1.2793925  -1.3828226
  14   3.9645458   1.2793926   4.0635907
  14  -2.7232031  -2.7232502  -0.0000021
  14  -2.7232021   2.7231631  -0.0000020
  14   2.7232103  -2.7232492  -0.0000017
  14   2.7232113   2.7231641  -0.0000017
  14  -1.4818702  -1.2793648  -4.0424245
  14  -1.4818699  -1.2793647   1.4039888
  14  -1.4818692   4.1670486  -4.0424244
  14  -1.4818689   4.1670487   1.4039889
  14   3.9645431  -1.2793638  -4.0424242
  14   3.9645435  -1.2793637   1.4039891
  14   3.9645441   4.1670496  -4.0424241
  14   3.9645445   4.1670497   1.4039892
ATOMS    3
  32  -0.0000018  -0.0000019  -0.0000005
  14  -3.9197861  -4.2123896  -4.0629207
  14  -3.9197858  -4.2123895   1.3834925
  14  -3.9197851   1.2340238  -4.0629207
  14  -3.9197848   1.2340239   1.3834926
  14   1.5266273  -4.2123886  -4.0629204
  14   1.5266276  -4.2123885   1.3834928
  14   1.5266283   1.2340248  -4.0629203
  14   1.5266286   1.2340249   1.3834929
  14   0.0000035  -2.7232468  -2.7231417
  14   0.0000038  -2.7232468   2.7232716
  14   0.0000045   2.7231665  -2.7231416
  14   0.0000048   2.7231666   2.7232716
  14  -3.9198299  -1.2339806  -1.3834847
  14  -3.9198296  -1.2339805   4.0629285
  14  -3.9198289   4.2124328  -1.3834846
  14  -3.9198286   4.2124329   4.0629286
  14   1.5265835  -1.2339795  -1.3834844
  14   1.5265838  -1.2339795   4.0629289
  14   1.5265845   4.2124338  -1.3834843
  14   1.5265848   4.2124339   4.0629289
  14  -2.7231901   0.0000306  -2.7232684
  14  -2.7231898   0.0000307   2.7231449
  14   2.7232233   0.0000316  -2.7232681
  14   2.7232236   0.0000317   2.7231452
  14  -1.5266266  -4.2123915  -1.3834935
  14  -1.5266262  -4.2123914   4.0629197
  14  -1.5266256   1.2340219  -1.3834934
  14  -1.5266252   1.2340220   4.0629198
  14   3.9197868  -4.2123905  -1.3834932
  14   3.9197871  -4.2123904   4.0629201
  14   3.9197878   1.2340229  -1.3834931
  14   3.9197881   1.2340230   4.0629201
  14  -2.7232013  -2.7232695  -0.0000024
  14  -2.7232003   2.7231439  -0.0000023
  14   2.7232121  -2.7232685  -0.0000021
  14   2.7232131   2.7231449  -0.0000020
  14  -1.5266279  -1.2339824  -4.0417557
  14  -1.5266276  -1.2339823   1.4046575
  14  -1.5266269   4.2124310  -4.0417557
  14  -1.5266266   4.2124311   1.4046576
  14   3.9197854  -1.2339814  -4.0417554
  14   3.9197857  -1.2339813   1.4046578
  14   3.9197864   4.2124320  -4.0417554
  14   3.9197867   4.2124321   1.4046579
ATOMS    4
  32  -0.0000021  -0.0000025  -0.0000004
  14  -3.8813791  -4.2513217  -4.0623464
  14  -3.8813788  -4.2513216   1.3840668
  14  -3.8813781   1.1950917  -4.0623464
  14  -3.8813778   1.1950918   1.3840669
  14   1.5650343  -4.2513207  -4.0623461
  14   1.5650346  -4.2513206   1.3840671
  14   1.5650353   1.1950927  -4.0623460
  14   1.5650356   1.1950928   1.3840672
  14   0.0000047  -2.7232575  -2.7231247
  14   0.0000050  -2.7232574   2.7232886
  14   0.0000057   2.7231559  -2.7231246
  14   0.0000060   2.7231560   2.7232886
  14  -3.8814338  -1.1950375  -1.3840579
  14  -3.8814335  -1.1950374   4.0623553
  14  -3.8814328   4.2513759  -1.3840578
  14  -3.8814325   4.2513760   4.0623554
  14   1.5649795  -1.1950365  -1.3840576
  14   1.5649799  -1.1950364   4.0623557
  14   1.5649805   4.2513769  -1.3840575
  14   1.5649809   4.2513770   4.0623557
  14  -2.7231857   0.0000389  -2.7232848
  14  -2.7231854   0.0000390   2.7231284
  14   2.7232277   0.0000399  -2.7232845
  14   2.7232280   0.0000400   2.7231287
  14  -1.5650336  -4.2513236  -1.3840689
  14  -1.5650333  -4.2513235   4.0623443
  14  -1.5650326   1.1950898  -1.3840688
  14  -1.5650323   1.1950899   4.0623444
  14   3.8813798  -4.2513226  -1.3840686
  14   3.8813801  -4.2513225   4.0623447
  14   3.8813808   1.1950908  -1.3840685
  14   3.8813811   1.1950909   4.0623447
  14  -2.7231998  -2.7232860  -0.0000026
  14  -2.7231988   2.7231274  -0.0000026
  14   2.7232136  -2.7232850  -0.0000023
  14   2.7232146   2.7231284  -0.0000023
  14  -1.5650350  -1.1950394  -4.0411819
  14  -1.5650347  -1.1950393   1.4052314
  14  -1.5650340   4.2513740  -4.0411818
  14  -1.5650337   4.2513741   1.4052315
  14   3.8813784  -1.1950384  -4.0411816
  14   3.8813787  -1.1950383   1.4052317
  14   3.8813794   4.2513750  -4.0411815
  14   3.8813797   4.2513751   1.4052318
ATOMS    5
  32  -0.0000023  -0.0000030  -0.0000004
  14  -3.8510013  -4.2821148  -4.0618922
  14  -3.8510010  -4.2821147   1.3845211
  14  -3.8510003   1.1642986  -4.0618921
  14  -3.8510000   1.1642987   1.3845211
  14   1.5954121  -4.2821138  -4.0618919
  14   1.5954124  -4.2821137   1.3845214
  14   1.5954131   1.1642996  -4.0618918
  14   1.5954134   1.1642997   1.3845215
  14   0.0000056  -2.7232659  -2.7231112
  14   0.0000059  -2.7232658   2.7233020
  14   0.0000066   2.7231475  -2.7231112
  14   0.0000069   2.7231475   2.7233021
  14  -3.8510647  -1.1642358  -1.3845113
  14  -3.8510644  -1.1642357   4.0619020
  14  -3.8510637   4.2821776  -1.3845112
  14  -3.8510634   4.2821777   4.0619020
  14   1.5953487  -1.1642348  -1.3845110
  14   1.5953490  -1.1642347   4.0619023
  14   1.5953497   4.2821786  -1.3845109
  14   1.5953500   4.2821787   4.0619023
  14  -2.7231822   0.0000455  -2.7232978
  14  -2.7231819   0.0000456   2.7231154
  14   2.7232312   0.0000465  -2.7232975
  14   2.7232315   0.0000466   2.7231158
  14  -1.5954114  -4.2821167  -1.3845240
  14  -1.5954110  -4.2821166   4.0618892
  14  -1.5954104   1.1642967  -1.3845239
  14  -1.5954100   1.1642968   4.0618893
  14   3.8510020  -4.2821157  -1.3845237
  14   3.8510023  -4.2821156   4.0618896
  14   3.8510030   1.1642977  -1.3845236
  14   3.8510033   1.1642978   4.0618896
  14  -2.7231985  -2.7232991  -0.0000029
  14  -2.7231975   2.7231143  -0.0000028
  14   2.7232148  -2.7232981  -0.0000025
  14   2.7232158   2.7231153  -0.0000025
  14  -1.5954127  -1.1642376  -4.0407280
  14  -1.5954124  -1.1642376   1.4056853
  14  -1.5954117   4.2821758  -4.0407279
  14  -1.5954114   4.2821758   1.4056854
  14   3.8510006  -1.1642366  -4.0407277
  14   3.8510009  -1.1642366   1.4056856
  14   3.8510016   4.2821768  -4.0407276
  14   3.8510019   4.2821768   1.4056857
ATOMS    6
  32  -0.0000025  -0.0000033  -0.0000004
  14  -3.8299805  -4.3034230  -4.0615779
  14  -3.8299801  -4.3034229   1.3848354
  14  -3.8299795   1.1429904  -4.0615778
  14  -3.8299791   1.1429905   1.3848355
  14   1.6164329  -4.3034220  -4.0615776
  14   1.6164332  -4.3034219   1.3848357
  14   1.6164339   1.1429914  -4.0615775
  14   1.6164342   1.1429915   1.3848358
  14   0.0000062  -2.7232717  -2.7231019
  14   0.0000065  -2.7232717   2.7233114
  14   0.0000072   2.7231416  -2.7231018
  14   0.0000075   2.7231417   2.7233114
  14  -3.8300498  -1.1429216  -1.3848250
  14  -3.8300495  -1.1429215   4.0615882
  14  -3.8300488   4.3034918  -1.3848249
  14  -3.8300485   4.3034919   4.0615883
  14   1.6163635  -1.1429205  -1.3848247
  14   1.6163639  -1.1429205   4.0615886
  14   1.6163645   4.3034928  -1.3848246
  14   1.6163649   4.3034929   4.0615886
  14  -2.7231798   0.0000501  -2.7233068
  14  -2.7231795   0.0000501   2.7231064
  14   2.7232336   0.0000511  -2.7233065
  14   2.7232339   0.0000511   2.7231068
  14  -1.6164322  -4.3034249  -1.3848390
  14  -1.6164319  -4.3034249   4.0615743
  14  -1.6164312   1.1429885  -1.3848389
  14  -1.6164309   1.1429885   4.0615744
  14   3.8299812  -4.3034239  -1.3848386
  14   3.8299815  -4.3034239   4.0615746
  14   3.8299822   1.1429895  -1.3848386
  14   3.8299825   1.1429895   4.0615747
  14  -2.7231977  -2.7233081  -0.0000030
  14  -2.7231967   2.7231053  -0.0000029
  14   2.7232157  -2.7233071  -0.0000027
  14   2.7232167   2.7231063  -0.0000026
  14  -1.6164336  -1.1429234  -4.0404139
  14  -1.6164333  -1.1429233   1.4059994
  14  -1.6164326   4.3034900  -4.0404138
  14  -1.6164323   4.3034901   1.4059994
  14   3.8299798  -1.1429224  -4.0404136
  14   3.8299801  -1.1429223   1.4059997
  14   3.8299808   4.3034910  -4.0404135
  14   3.8299811   4.3034911   1.4059998
ATOMS    7
  32  -0.0000025  -0.0000035  -0.0000004
  14  -3.8192352  -4.3143151  -4.0614172
  14  -3.8192349  -4.3143151   1.3849961
  14  -3.8192342   1.1320982  -4.0614171
  14  -3.8192339   1.1320983   1.3849961
  14   1.6271782  -4.3143141  -4.0614169
  14   1.6271785  -4.3143141   1.3849964
  14   1.6271792   1.1320993  -4.0614168
  14   1.6271795   1.1320993   1.3849965
  14   0.0000065  -2.7232747  -2.7230972
  14   0.0000068  -2.7232747   2.7233161
  14   0.0000075   2.7231387  -2.7230971
  14   0.0000078   2.7231387   2.7233162
  14  -3.8193077  -1.1320264  -1.3849854
  14  -3.8193073  -1.1320263   4.0614279
  14  -3.8193066   4.3143870  -1.3849853
  14  -3.8193063   4.3143871   4.0614280
  14   1.6271057  -1.1320253  -1.3849851
  14   1.6271060  -1.1320253   4.0614282
  14   1.6271067   4.3143880  -1.3849850
  14   1.6271070   4.3143881   4.0614283
  14  -2.7231786   0.0000524  -2.7233114
  14  -2.7231783   0.0000525   2.7231019
  14   2.7232348   0.0000534  -2.7233111
  14   2.7232351   0.0000535   2.7231022
  14  -1.6271775  -4.3143171  -1.3849999
  14  -1.6271771  -4.3143170   4.0614133
  14  -1.6271765   1.1320963  -1.3849999
  14  -1.6271761   1.1320964   4.0614134
  14   3.8192359  -4.3143161  -1.3849996
  14   3.8192362  -4.3143160   4.0614136
  14   3.8192369   1.1320973  -1.3849995
  14   3.8192372   1.1320974   4.0614137
  14  -2.7231973  -2.7233127  -0.0000031
  14  -2.7231963   2.7231007  -0.0000030
  14   2.7232161  -2.7233117  -0.0000028
  14   2.7232171   2.7231017  -0.0000027
  14  -1.6271788  -1.1320282  -4.0402533
  14  -1.6271785  -1.1320281   1.4061599
  14  -1.6271778   4.3143852  -4.0402533
  14  -1.6271775   4.3143853   1.4061600
  14   3.8192345  -1.1320272  -4.0402530
  14   3.8192348  -1.1320271   1.4061602
  14   3.8192355   4.3143862  -4.0402530
  14   3.8192358   4.3143863   1.4061603
ATOMS    8
  32  -0.0000025  -0.0000035  -0.0000004
  14  -3.8192352  -4.3143151  -4.0614172
  14  -3.8192349  -4.3143151   1.3849961
  14  -3.8192342   1.1320982  -4.0614171
  14  -3.8192339   1.1320983   1.3849961
  14   1.6271782  -4.3143141  -4.0614169
  14   1.6271785  -4.3143141   1.3849964
  14   1.6271792   1.1320993  -4.0614168
  14   1.6271795   1.1320993   1.3849965
  14   0.0000065  -2.7232747  -2.7230972
  14   0.0000068  -2.7232747   2.7233161
  14   0.0000075   2.7231387  -2.7230971
  14   0.0000078   2.7231387   2.7233162
  14  -3.8193077  -1.1320264  -1.3849854
  14  -3.8193073  -1.1320263   4.0614279
  14  -3.8193066   4.3143870  -1.3849853
  14  -3.8193063   4.3143871   4.0614280
  14   1.6271057  -1.1320253  -1.3849851
  14   1.6271060  -1.1320253   4.0614282
  14   1.6271067   4.3143880  -1.3849850
  14   1.6271070   4.3143881   4.0614283
  14  -2.7231786   0.0000524  -2.7233114
  14  -2.7231783   0.0000525   2.7231019
  14   2.7232348   0.0000534  -2.7233111
  14   2.7232351   0.0000535   2.7231022
  14  -1.6271775  -4.3143171  -1.3849999
  14  -1.6271771  -4.3143170   4.0614133
  14  -1.6271765   1.1320963  -1.3849999
  14  -1.6271761   1.1320964   4.0614134
  14   3.8192359  -4.3143161  -1.3849996
  14   3.8192362  -4.3143160   4.0614136
  14   3.8192369   1.1320973  -1.3849995
  14   3.8192372   1.1320974   4.0614137
  14  -2.7231973  -2.7233127  -0.0000031
  14  -2.7231963   2.7231007  -0.0000030
  14   2.7232161  -2.7233117  -0.0000028
  14   2.7232171   2.7231017  -0.0000027
  14  -1.6271788  -1.1320282  -4.0402533
  14  -1.6271785  -1.1320281   1.4061599
  14  -1.6271778   4.3143852  -4.0402533
  14  -1.6271775   4.3143853   1.4061600
  14   3.8192345  -1.1320272  -4.0402530
  14   3.8192348  -1.1320271   1.4061602
  14   3.8192355   4.3143862  -4.0402530
  14   3.8192358   4.3143863   1.4061603
ATOMS    9
  32  -0.0000025  -0.0000033  -0.0000004
  14  -3.8299805  -4.3034230  -4.0615779
  14  -3.8299801  -4.3034229   1.3848354
  14  -3.8299795   1.1429904  -4.0615778
  14  -3.8299791   1.1429905   1.3848355
  14   1.6164329  -4.3034220  -4.0615776
  14   1.6164332  -4.3034219   1.3848357
  14   1.6164339   1.1429914  -4.0615775
  14   1.6164342   1.1429915   1.3848358
  14   0.0000062  -2.7232717  -2.7231019
  14   0.0000065  -2.7232717   2.7233114
  14   0.0000072   2.7231416  -2.7231018
  14   0.0000075   2.7231417   2.7233114
  14  -3.8300498  -1.1429216  -1.3848250
  14  -3.8300495  -1.1429215   4.0615882
  14  -3.8300488   4.3034918  -1.3848249
  14  -3.8300485   4.3034919   4.0615883
  14   1.6163635  -1.1429205  -1.3848247
  14   1.6163639  -1.1429205   4.0615886
  14   1.6163645   4.3034928  -1.3848246
  14   1.6163649   4.3034929   4.0615886
  14  -2.7231798   0.0000501  -2.7233068
  14  -2.7231795   0.0000501   2.7231064
  14   2.7232336   0.0000511  -2.7233065
  14   2.7232339   0.0000511   2.7231068
  14  -1.6164322  -4.3034249  -1.3848390
  14  -1.6164319  -4.3034249   4.0615743
  14  -1.6164312   1.1429885  -1.3848389
  14  -1.6164309   1.1429885   4.0615744
  14   3.8299812  -4.3034239  -1.3848386
  14   3.8299815  -4.3034239   4.0615746
  14   3.8299822   1.1429895  -1.3848386
  14   3.8299825   1.1429895   4.0615747
  14  -2.7231977  -2.7233081  -0.0000030
  14  -2.7231967   2.7231053  -0.0000029
  14   2.7232157  -2.7233071  -0.0000027
  14   2.7232167   2.7231063  -0.0000026
  14  -1.6164336  -1.1429234  -4.0404139
  14  -1.6164333  -1.1429233   1.4059994
  14  -1.6164326   4.3034900  -4.0404138
  14  -1.6164323   4.3034901   1.4059994
  14   3.8299798  -1.1429224  -4.0404136
  14   3.8299801  -1.1429223   1.4059997
  14   3.8299808   4.3034910  -4.0404135
  14   3.8299811   4.3034911   1.4059998
ATOMS   10
  32  -0.0000023  -0.0000030  -0.0000004
  14  -3.8510013  -4.2821148  -4.0618922
  14  -3.8510010  -4.2821147   1.3845211
  14  -3.8510003   1.1642986  -4.0618921
  14  -3.8510000   1.1642987   1.3845211
  14   1.5954121  -4.2821138  -4.0618919
  14   1.5954124  -4.2821137   1.3845214
  14   1.5954131   1.1642996  -4.0618918
  14   1.5954134   1.1642997   1.3845215
  14   0.0000056  -2.7232659  -2.7231112
  14   0.0000059  -2.7232658   2.7233020
  14   0.0000066   2.7231475  -2.7231112
  14   0.0000069   2.7231475   2.7233021
  14  -3.8510647  -1.1642358  -1.3845113
  14  -3.8510644  -1.1642357   4.0619020
  14  -3.8510637   4.2821776  -1.3845112
  14  -3.8510634   4.2821777   4.0619020
  14   1.5953487  -1.1642348  -1.3845110
  14   1.5953490  -1.1642347   4.0619023
  14   1.5953497   4.2821786  -1.3845109
  14   1.5953500   4.2821787   4.0619023
  14  -2.7231822   0.0000455  -2.7232978
  14  -2.7231819   0.0000456   2.7231154
  14   2.7232312   0.0000465  -2.7232975
  14   2.7232315   0.0000466   2.7231158
  14  -1.5954114  -4.2821167  -1.3845240
  14  -1.5954110  -4.2821166   4.0618892
  14  -1.5954104   1.1642967  -1.3845239
  14  -1.5954100   1.1642968   4.0618893
  14   3.8510020  -4.2821157  -1.3845237
  14   3.8510023  -4.2821156   4.0618896
  14   3.8510030   1.1642977  -1.3845236
  14   3.8510033   1.1642978   4.0618896
  14  -2.7231985  -2.7232991  -0.0000029
  14  -2.7231975   2.7231143  -0.0000028
  14   2.7232148  -2.7232981  -0.0000025
  14   2.7232158   2.7231153  -0.0000025
  14  -1.5954127  -1.1642376  -4.0407280
  14  -1.5954124  -1.1642376   1.4056853
  14  -1.5954117   4.2821758  -4.0407279
  14  -1.5954114   4.2821758   1.4056854
  14   3.8510006  -1.1642366  -4.0407277
  14   3.8510009  -1.1642366   1.4056856
  14   3.8510016   4.2821768  -4.0407276
  14   3.8510019   4.2821768   1.4056857
ATOMS   11
  32  -0.0000021  -0.0000025  -0.0000004
  14  -3.8813791  -4.2513217  -4.0623464
  14  -3.8813788  -4.2513216   1.3840668
  14  -3.8813781   1.1950917  -4.0623464
  14  -3.8813778   1.1950918   1.3840669
  14   1.5650343  -4.2513207  -4.0623461
  14   1.5650346  -4.2513206   1.3840671
  14   1.5650353   1.1950927  -4.0623460
  14   1.5650356   1.1950928   1.3840672
  14   0.0000047  -2.7232575  -2.7231247
  14   0.0000050  -2.7232574   2.7232886
  14   0.0000057   2.7231559  -2.7231246
  14   0.0000060   2.7231560   2.7232886
  14  -3.8814338  -1.1950375  -1.3840579
  14  -3.8814335  -1.1950374   4.0623553
  14  -3.8814328   4.2513759  -1.3840578
  14  -3.8814325   4.2513760   4.0623554
  14   1.5649795  -1.1950365  -1.3840576
  14   1.5649799  -1.1950364   4.0623557
  14   1.5649805   4.2513769  -1.3840575
  14   1.5649809   4.2513770   4.0623557
  14  -2.7231857   0.0000389  -2.7232848
  14  -2.7231854   0.0000390   2.7231284
  14   2.7232277   0.0000399  -2.7232845
  14   2.7232280   0.0000400   2.7231287
  14  -1.5650336  -4.2513236  -1.3840689
  14  -1.5650333  -4.2513235   4.0623443
  14  -1.5650326   1.1950898  -1.3840688
  14  -1.5650323   1.1950899   4.0623444
  14   3.8813798  -4.2513226  -1.3840686
  14   3.8813801  -4.2513225   4.0623447
  14   3.8813808   1.1950908  -1.3840685
  14   3.8813811   1.1950909   4.0623447
  14  -2.7231998  -2.7232860  -0.0000026
  14  -2.7231988   2.7231274  -0.0000026
  14   2.7232136  -2.7232850  -0.0000023
  14   2.7232146   2.7231284  -0.0000023
  14  -1.5650350  -1.1950394  -4.0411819
  14  -1.5650347  -1.1950393   1.4052314
  14  -1.5650340   4.2513740  -4.0411818
  14  -1.5650337   4.2513741   1.4052315
  14   3.8813784  -1.1950384  -4.0411816
  14   3.8813787  -1.1950383   1.4052317
  14   3.8813794   4.2513750  -4.0411815
  14   3.8813797   4.2513751   1.4052318
ATOMS   12
  32  -0.0000018  -0.0000019  -0.0000005
  14  -3.9197861  -4.2123896  -4.0629207
  14  -3.9197858  -4.2123895   1.3834925
  14  -3.9197851   1.2340238  -4.0629207
  14  -3.9197848   1.2340239   1.3834926
  14   1.5266273  -4.2123886  -4.0629204
  14   1.5266276  -4.2123885   1.3834928
  14   1.5266283   1.2340248  -4.0629203
  14   1.5266286   1.2340249   1.3834929
  14   0.0000035  -2.7232468  -2.7231417
  14   0.0000038  -2.7232468   2.7232716
  14   0.0000045   2.7231665  -2.7231416
  14   0.0000048   2.7231666   2.7232716
  14  -3.9198299  -1.2339806  -1.3834847
  14  -3.9198296  -1.2339805   4.0629285
  14  -3.9198289   4.2124328  -1.3834846
  14  -3.9198286   4.2124329   4.0629286
  14   1.5265835  -1.2339795  -1.3834844
  14   1.5265838  -1.2339795   4.0629289
  14   1.5265845   4.2124338  -1.3834843
  14   1.5265848   4.2124339   4.0629289
  14  -2.7231901   0.0000306  -2.7232684
  14  -2.7231898   0.0000307   2.7231449
  14   2.7232233   0.0000316  -2.7232681
  14   2.7232236   0.0000317   2.7231452
  14  -1.5266266  -4.2123915  -1.3834935
  14  -1.5266262  -4.2123914   4.0629197
  14  -1.5266256   1.2340219  -1.3834934
  14  -1.5266252   1.2340220   4.0629198
  14   3.9197868  -4.2123905  -1.3834932
  14   3.9197871  -4.2123904   4.0629201
  14   3.9197878   1.2340229  -1.3834931
  14   3.9197881   1.2340230   4.0629201
  14  -2.7232013  -2.7232695  -0.0000024
  14  -2.7232003   2.7231439  -0.0000023
  14   2.7232121  -2.7232685  -0.0000021
  14   2.7232131   2.7231449  -0.0000020
  14  -1.5266279  -1.2339824  -4.0417557
  14  -1.5266276  -1.2339823   1.4046575
  14  -1.5266269   4.2124310  -4.0417557
  14  -1.5266266   4.2124311   1.4046576
  14   3.9197854  -1.2339814  -4.0417554
  14   3.9197857  -1.2339813   1.4046578
  14   3.9197864   4.2124320  -4.0417554
  14   3.9197867   4.2124321   1.4046579
ATOMS   13
  32  -0.0000015  -0.0000012  -0.0000005
  14  -3.9645438  -4.1670200  -4.0635900
  14  -3.9645435  -4.1670199   1.3828233
  14  -3.9645428   1.2793934  -4.0635899
  14  -3.9645425   1.2793935   1.3828233
  14   1.4818696  -4.1670190  -4.0635897
  14   1.4818699  -4.1670189   1.3828236
  14   1.4818706   1.2793944  -4.0635896
  14   1.4818709   1.2793945   1.3828237
  14   0.0000022  -2.7232344  -2.7231615
  14   0.0000025  -2.7232344   2.7232517
  14   0.0000032   2.7231790  -2.7231615
  14   0.0000035   2.7231790   2.7232518
  14  -3.9645749  -1.2793629  -1.3828167
  14  -3.9645746  -1.2793628   4.0635965
  14  -3.9645739   4.1670505  -1.3828167
  14  -3.9645736   4.1670506   4.0635966
  14   1.4818385  -1.2793619  -1.3828164
  14   1.4818388  -1.2793618   4.0635968
  14   1.4818395   4.1670515  -1.3828163
  14   1.4818398   4.1670516   4.0635969
  14  -2.7231952   0.0000209  -2.7232493
  14  -2.7231949   0.0000209   2.7231640
  14   2.7232182   0.0000219  -2.7232489
  14   2.7232185   0.0000219   2.7231643
  14  -1.4818688  -4.1670219  -1.3828230
  14  -1.4818685  -4.1670218   4.0635903
  14  -1.4818678   1.2793915  -1.3828229
  14  -1.4818675   1.2793916   4.0635904
  14   3.9645445  -4.1670209  -1.3828227
  14   3.9645448  -4.1670208   4.0635906
  14   3.9645455   1.2793925  -1.3828226
  14   3.9645458   1.2793926   4.0635907
  14  -2.7232031  -2.7232502  -0.0000021
  14  -2.7232021   2.7231631  -0.0000020
  14   2.7232103  -2.7232492  -0.0000017
  14   2.7232113   2.7231641  -0.0000017
  14  -1.4818702  -1.2793648  -4.0424245
  14  -1.4818699  -1.2793647   1.4039888
  14  -1.4818692   4.1670486  -4.0424244
  14  -1.4818689   4.1670487   1.4039889
  14   3.9645431  -1.2793638  -4.0424242
  14   3.9645435  -1.2793637   1.4039891
  14   3.9645441   4.1670496  -4.0424241
  14   3.9645445   4.1670497   1.4039892
ATOMS   14
  32  -0.0000011  -0.0000004  -0.0000005
  14  -4.0136961  -4.1171957  -4.0643250
  14  -4.0136958  -4.1171956   1.3820883
  14  -4.0136951   1.3292177  -4.0643249
  14  -4.0136948   1.3292177   1.3820884
  14   1.4327173  -4.1171947  -4.0643247
  14   1.4327176  -4.1171946   1.3820886
  14   1.4327183   1.3292187  -4.0643246
  14   1.4327186   1.3292187   1.3820887
  14   0.0000008  -2.7232208  -2.7231833
  14   0.0000011  -2.7232207   2.7232299
  14   0.0000018   2.7231926  -2.7231833
  14   0.0000021   2.7231927   2.7232300
  14  -4.0137132  -1.3292012  -1.3820832
  14  -4.0137128  -1.3292011   4.0643301
  14  -4.0137121   4.1172122  -1.3820831
  14  -4.0137118   4.1172123   4.0643302
  14   1.4327002  -1.3292001  -1.3820829
  14   1.4327005  -1.3292001   4.0643304
  14   1.4327012   4.1172132  -1.3820828
  14   1.4327015   4.1172133   4.0643305
  14  -2.7232008   0.0000102  -2.7232282
  14  -2.7232005   0.0000103   2.7231850
  14   2.7232126   0.0000112  -2.7232279
  14   2.7232129   0.0000113   2.7231854
  14  -1.4327166  -4.1171977  -1.3820866
  14  -1.4327163  -4.1171976   4.0643267
  14  -1.4327156   1.3292157  -1.3820865
  14  -1.4327153   1.3292158   4.0643267
  14   4.0136968  -4.1171966  -1.3820863
  14   4.0136971  -4.1171966   4.0643270
  14   4.0136978   1.3292167  -1.3820862
  14   4.0136981   1.3292168   4.0643270
  14  -2.7232051  -2.7232291  -0.0000017
  14  -2.7232041   2.7231843  -0.0000016
  14   2.7232083  -2.7232281  -0.0000014
  14   2.7232093   2.7231853  -0.0000013
  14  -1.4327180  -1.3292030  -4.0431589
  14  -1.4327177  -1.3292029   1.4032544
  14  -1.4327170   4.1172104  -4.0431588
  14  -1.4327166   4.1172105   1.4032544
  14   4.0136954  -1.3292020  -4.0431586
  14   4.0136957  -1.3292019   1.4032547
  14   4.0136964   4.1172114  -4.0431585
  14   4.0136967   4.1172115   1.4032547
ATOMS   15
  32  -0.0000007   0.0000004  -0.0000005
  14  -4.0650947  -4.0650944  -4.0650935
  14  -4.0650944  -4.0650943   1.3813197
  14  -4.0650937   1.3813190  -4.0650935
  14  -4.0650934   1.3813191   1.3813198
  14   1.3813187  -4.0650934  -4.0650932
  14   1.3813190  -4.0650933   1.3813200
  14   1.3813197   1.3813200  -4.0650932
  14   1.3813200   1.3813201   1.3813201
  14  -0.0000008  -2.7232066  -2.7232061
  14  -0.0000004  -2.7232065   2.7232072
  14   0.0000002   2.7232068  -2.7232060
  14   0.0000006   2.7232069   2.7232072
  14  -4.0650971  -1.3813171  -1.3813161
  14  -4.0650968  -1.3813170   4.0650972
  14  -4.0650961   4.0650963  -1.3813160
  14  -4.0650958   4.0650964   4.0650973
  14   1.3813162  -1.3813161  -1.3813157
  14   1.3813165  -1.3813160   4.0650975
  14   1.3813172   4.0650973  -1.3813157
  14   1.3813175   4.0650974   4.0650976
  14  -2.7232067  -0.0000009  -2.7232062
  14  -2.7232064  -0.0000009   2.7232070
  14   2.7232067   0.0000001  -2.7232059
  14   2.7232070   0.0000001   2.7232073
  14  -1.3813179  -4.0650963  -1.3813166
  14  -1.3813176  -4.0650962   4.0650967
  14  -1.3813169   1.3813171  -1.3813165
  14  -1.3813166   1.3813171   4.0650968
  14   4.0650954  -4.0650953  -1.3813163
  14   4.0650957  -4.0650952   4.0650970
  14   4.0650964   1.3813181  -1.3813162
  14   4.0650968   1.3813181   4.0650971
  14  -2.7232071  -2.7232070  -0.0000013
  14  -2.7232061   2.7232064  -0.0000013
  14   2.7232063  -2.7232060  -0.0000010
  14   2.7232073   2.7232074  -0.0000010
  14  -1.3813193  -1.3813190  -4.0439269
  14  -1.3813190  -1.3813189   1.4024864
  14  -1.3813183   4.0650944  -4.0439268
  14  -1.3813180   4.0650945   1.4024865
  14   4.0650940  -1.3813180  -4.0439266
  14   4.0650944  -1.3813179   1.4024867
  14   4.0650951   4.0650954  -4.0439265
  14   4.0650954   4.0650955   1.4024868
ATOMS   16
  32  -0.0000003   0.0000012  -0.0000005
  14  -4.1164934  -4.0129931  -4.0658621
  14  -4.1164931  -4.0129930   1.3805512
  14  -4.1164924   1.4334203  -4.0658620
  14  -4.1164921   1.4334204   1.3805512
  14   1.3299200  -4.0129921  -4.0658618
  14   1.3299203  -4.0129920   1.3805515
  14   1.3299210   1.4334213  -4.0658617
  14   1.3299213   1.4334214   1.3805516
  14  -0.0000023  -2.7231923  -2.7232289
  14  -0.0000020  -2.7231922   2.7231844
  14  -0.0000013   2.7232211  -2.7232288
  14  -0.0000010   2.7232212   2.7231845
  14  -4.1164811  -1.4334331  -1.3805490
  14  -4.1164808  -1.4334330   4.0658643
  14  -4.1164801   4.0129803  -1.3805489
  14  -4.1164798   4.0129804   4.0658644
  14   1.3299322  -1.4334321  -1.3805486
  14   1.3299325  -1.4334320   4.0658646
  14   1.3299332   4.0129813  -1.3805486
  14   1.3299335   4.0129814   4.0658647
  14  -2.7232125  -0.0000121  -2.7231843
  14  -2.7232122  -0.0000120   2.7232290
  14   2.7232008  -0.0000111  -2.7231839
  14   2.7232011  -0.0000110   2.7232293
  14  -1.3299193  -4.0129950  -1.3805466
  14  -1.3299190  -4.0129949   4.0658667
  14  -1.3299183   1.4334184  -1.3805465
  14  -1.3299180   1.4334185   4.0658668
  14   4.1164941  -4.0129940  -1.3805463
  14   4.1164944  -4.0129939   4.0658670
  14   4.1164951   1.4334194  -1.3805462
  14   4.1164954   1.4334195   4.0658671
  14  -2.7232092  -2.7231849  -0.0000010
  14  -2.7232082   2.7232285  -0.0000009
  14   2.7232042  -2.7231839  -0.0000007
  14   2.7232052   2.7232295  -0.0000006
  14  -1.3299207  -1.4334349  -4.0446949
  14  -1.3299204  -1.4334349   1.4017184
  14  -1.3299197   4.0129785  -4.0446948
  14  -1.3299194   4.0129785   1.4017185
  14   4.1164927  -1.4334339  -4.0446945
  14   4.1164930  -1.4334339   1.4017187
  14   4.1164937   4.0129795  -4.0446945
  14   4.1164940   4.0129795   1.4017188
ATOMS   17
  32   0.0000000   0.0000020  -0.0000006
  14  -4.1656456  -3.9631688  -4.0665971
  14  -4.1656453  -3.9631688   1.3798162
  14  -4.1656446   1.4832446  -4.0665970
  14  -4.1656443   1.4832446   1.3798163