BEGIN_INFO
  #  
  #  Band-XCRYSDEN-Structure-File
  #  
  Fermi energy:    -6.6406
END_INFO

BEGIN_BLOCK_BANDGRID_3D
  mgb2
  BANDGRID_3D_spin_1
    3
   21   21   17
      0.00000000      0.00000000      0.00000000
      1.08461434      0.62608371      0.00000435
     -0.00010178      1.25234371     -0.00000543
      0.00000441     -0.00000307      0.96547508
  BAND:    3
   -6.34872   -6.33258   -6.28634   -6.21668   -6.13512   -6.05677   -5.99598
   -5.96020   -5.94888   -5.96020   -5.99598   -6.05677   -6.13512   -6.21668
   -6.28634   -6.33258   -6.34872   -6.57057   -6.55397   -6.50661   -6.43528
   -6.35070   -6.26643   -6.19689   -6.15348   -6.13945   -6.15349   -6.19690
   -6.26644   -6.35071   -6.43529   -6.50662   -6.55398   -6.57057   -7.18797
   -7.16976   -7.11883   -7.04213   -6.94893   -6.85142   -6.76475   -6.70516
   -6.68425   -6.70517   -6.76477   -6.85144   -6.94895   -7.04215   -7.11884
   -7.16977   -7.18797   -8.05265   -8.03120   -7.97407   -7.88862   -7.78322
   -7.67057   -7.56759   -7.49388   -7.46688   -7.49390   -7.56762   -7.67060
   -7.78324   -7.88864   -7.97409   -8.03121   -8.05265   -8.87403   -8.99888
   -8.94842   -8.85576   -8.73828   -8.61099   -8.49331   -8.40833   -8.37707
   -8.40834   -8.49333   -8.61102   -8.73831   -8.85579   -8.94844   -8.99890
   -8.87403   -8.48070   -8.77347   -9.44925   -9.84249   -9.73629   -9.59853
   -9.46798   -9.37294   -9.33791   -9.37296   -9.46801   -9.59857   -9.73633
   -9.84252   -9.44931   -8.77351   -8.48070   -8.29674   -8.30307   -8.99162
   -9.80697  -10.54028  -10.57641  -10.44450  -10.34239  -10.30434  -10.34241
  -10.44453  -10.57644  -10.54035   -9.80704   -8.99169   -8.30312   -8.29674
   -8.57556   -8.56134   -8.52036   -9.26984  -10.07796  -10.80127  -11.29743
  -11.28370  -11.24914  -11.28372  -11.29747  -10.80133  -10.07804   -9.26991
   -8.52036   -8.56134   -8.57556   -8.78014   -8.76598   -8.72511   -8.68680
   -9.48744  -10.21146  -10.80672  -11.21604  -11.36764  -11.21607  -10.80677
  -10.21153   -9.48752   -8.68688   -8.72511   -8.76598   -8.78014   -8.90484
   -8.89073   -8.84993   -8.78712   -8.93376   -9.64861  -10.23652  -10.63778
  -10.78351  -10.63780  -10.23655   -9.64866   -8.93382   -8.78712   -8.84993
   -8.89073   -8.90484   -8.94672   -8.93262   -8.89185   -8.82902   -8.75217
   -9.37572   -9.96130  -10.36068  -10.50534  -10.36068   -9.96130   -9.37572
   -8.75217   -8.82902   -8.89185   -8.93262   -8.94672   -8.90484   -8.89073
   -8.84993   -8.78712   -8.93382   -9.64866  -10.23655  -10.63780  -10.78351
  -10.63778  -10.23652   -9.64861   -8.93376   -8.78712   -8.84993   -8.89073
   -8.90484   -8.78014   -8.76598   -8.72511   -8.68688   -9.48752  -10.21153
  -10.80677  -11.21607  -11.36764  -11.21604  -10.80672  -10.21146   -9.48744
   -8.68680   -8.72511   -8.76598   -8.78014   -8.57556   -8.56134   -8.52036
   -9.26991  -10.07804  -10.80133  -11.29747  -11.28372  -11.24914  -11.28370
  -11.29743  -10.80127  -10.07796   -9.26984   -8.52036   -8.56134   -8.57556
   -8.29674   -8.30312   -8.99169   -9.80704  -10.54035  -10.57644  -10.44453
  -10.34241  -10.30434  -10.34239  -10.44450  -10.57641  -10.54028   -9.80697
   -8.99162   -8.30307   -8.29674   -8.48070   -8.77351   -9.44931   -9.84252
   -9.73633   -9.59857   -9.46801   -9.37296   -9.33791   -9.37294   -9.46798
   -9.59853   -9.73629   -9.84249   -9.44925   -8.77347   -8.48070   -8.87403
   -8.99890   -8.94844   -8.85579   -8.73831   -8.61102   -8.49333   -8.40834
   -8.37707   -8.40833   -8.49331   -8.61099   -8.73828   -8.85576   -8.94842
   -8.99888   -8.87403   -8.05265   -8.03121   -7.97409   -7.88864   -7.78324
   -7.67060   -7.56762   -7.49390   -7.46688   -7.49388   -7.56759   -7.67057
   -7.78322   -7.88862   -7.97407   -8.03120   -8.05265   -7.18797   -7.16977
   -7.11884   -7.04215   -6.94895   -6.85144   -6.76477   -6.70517   -6.68425
   -6.70516   -6.76475   -6.85142   -6.94893   -7.04213   -7.11883   -7.16976
   -7.18797   -6.57057   -6.55398   -6.50662   -6.43529   -6.35071   -6.26644
   -6.19690   -6.15349   -6.13945   -6.15348   -6.19689   -6.26643   -6.35070
   -6.43528   -6.50661   -6.55397   -6.57057   -6.34872   -6.33258   -6.28634
   -6.21668   -6.13512   -6.05677   -5.99598   -5.96020   -5.94888   -5.96020
   -5.99598   -6.05677   -6.13512   -6.21668   -6.28634   -6.33258   -6.34872
   -6.57058   -6.55399   -6.50663   -6.43531   -6.35073   -6.26646   -6.19692
   -6.15351   -6.13947   -6.15350   -6.19691   -6.26645   -6.35072   -6.43530
   -6.50663   -6.55399   -6.57058   -6.96454   -6.94755   -6.89883   -6.82471
   -6.73486   -6.64168   -6.56006   -6.50525   -6.48650   -6.50525   -6.56006
   -6.64168   -6.73486   -6.82471   -6.89883   -6.94755   -6.96454   -7.66141
   -7.64273   -7.58993   -7.50923   -7.40948   -7.30315   -7.20641   -7.13771
   -7.11275   -7.13772   -7.20642   -7.30316   -7.40950   -7.50924   -7.58994
   -7.64273   -7.66141   -8.56141   -8.53752   -8.47769   -8.38772   -8.27574
   -8.15507   -8.04379   -7.96352   -7.93399   -7.96353   -8.04381   -8.15510
   -8.27577   -8.38774   -8.47771   -8.53753   -8.56141   -8.65462   -8.94624
   -9.42466   -9.35854   -9.23787   -9.10406   -8.97913   -8.88846   -8.85507
   -8.88848   -8.97916   -9.10409   -9.23790   -9.35857   -9.42469   -8.94626
   -8.65462   -8.32772   -8.52321   -9.20613   -9.99494  -10.21397  -10.08261
   -9.94734   -9.84752   -9.81058   -9.84754   -9.94737  -10.08264  -10.21400
   -9.99499   -9.20618   -8.52325   -8.32772   -8.64455   -8.63151   -8.72529
   -9.51864  -10.32099  -10.93286  -10.90012  -10.80017  -10.76135  -10.80019
  -10.90015  -10.93290  -10.32105   -9.51871   -8.72535   -8.63151   -8.64455
   -8.88914   -8.87455   -8.83408   -8.96662   -9.75499  -10.48055  -11.07547
  -11.48193  -11.65113  -11.48195  -11.07551  -10.48061   -9.75506   -8.96668
   -8.83407   -8.87454   -8.88914   -9.05524   -9.04034   -8.99752   -8.93346
   -9.16896   -9.88222  -10.47251  -10.87651  -11.02389  -10.87653  -10.47254
   -9.88227   -9.16902   -8.93345   -8.99751   -9.04033   -9.05524   -9.13915
   -9.12418   -9.08090   -9.01424   -8.93347   -9.41611  -10.00148  -10.40073
  -10.54537  -10.40073  -10.00150   -9.41613   -8.93345   -9.01422   -9.08089
   -9.12417   -9.13915   -9.13908   -9.12411   -9.08084   -9.01422   -8.93374
   -9.41610  -10.00138  -10.40060  -10.54522  -10.40058  -10.00135   -9.41606
   -8.93372   -9.01420   -9.08083   -9.12410   -9.13908   -9.05501   -9.04012
   -8.99735   -8.93350   -9.16926   -9.88209  -10.47230  -10.87626  -11.02361
  -10.87623  -10.47225   -9.88202   -9.16918   -8.93349   -8.99733   -9.04012
   -9.05501   -8.88874   -8.87417   -8.83386   -8.96730   -9.75493  -10.48040
  -11.07528  -11.48174  -11.65084  -11.48171  -11.07522  -10.48032   -9.75484
   -8.96722   -8.83385   -8.87417   -8.88874   -8.64393   -8.63098   -8.72601
   -9.51863  -10.32092  -10.93317  -10.90068  -10.80071  -10.76186  -10.80069
  -10.90066  -10.93312  -10.32083   -9.51855   -8.72595   -8.63098   -8.64393
   -8.32678   -8.52326   -9.20611   -9.99505  -10.21482  -10.08345   -9.94816
   -9.84830   -9.81133   -9.84829   -9.94813  -10.08342  -10.21478   -9.99497
   -9.20603   -8.52322   -8.32678   -8.65436   -8.94613   -9.42584   -9.35985
   -9.23918   -9.10537   -8.98042   -8.88972   -8.85630   -8.88971   -8.98040
   -9.10534   -9.23915   -9.35982   -9.42581   -8.94609   -8.65436   -8.56345
   -8.53961   -8.47984   -8.38991   -8.27797   -8.15732   -8.04605   -7.96576
   -7.93621   -7.96574   -8.04602   -8.15729   -8.27794   -8.38988   -8.47982
   -8.53960   -8.56345   -7.66519   -7.64656   -7.59384   -7.51324   -7.41358
   -7.30733   -7.21066   -7.14199   -7.11702   -7.14197   -7.21063   -7.30730
   -7.41356   -7.51321   -7.59382   -7.64655   -7.66519   -6.97125   -6.95430
   -6.90566   -6.83167   -6.74198   -6.64896   -6.56748   -6.51276   -6.49404
   -6.51275   -6.56746   -6.64893   -6.74195   -6.83164   -6.90564   -6.95429
   -6.97125   -6.57720   -6.56062   -6.51331   -6.44208   -6.35763   -6.27348
   -6.20402   -6.16065   -6.14661   -6.16064   -6.20401   -6.27346   -6.35761
   -6.44206   -6.51330   -6.56061   -6.57720   -6.57058   -6.55399   -6.50663
   -6.43531   -6.35073   -6.26646   -6.19692   -6.15351   -6.13947   -6.15350
   -6.19691   -6.26645   -6.35072   -6.43530   -6.50663   -6.55399   -6.57058
   -7.18798   -7.16977   -7.11885   -7.04216   -6.94895   -6.85145   -6.76477
   -6.70518   -6.68426   -6.70518   -6.76476   -6.85143   -6.94894   -7.04214
   -7.11883   -7.16977   -7.18798   -7.66141   -7.64273   -7.58994   -7.50924
   -7.40950   -7.30316   -7.20642   -7.13772   -7.11275   -7.13772   -7.20641
   -7.30315   -7.40949   -7.50923   -7.58993   -7.64273   -7.66141   -8.30147
   -8.28228   -8.22654   -8.13970   -8.03085   -7.91310   -7.80411   -7.72526
   -7.69621   -7.72526   -7.80412   -7.91310   -8.03085   -8.13970   -8.22654
   -8.28228   -8.30147   -8.74170   -9.02928   -9.03509   -8.94091   -8.82154
   -8.69141   -8.56978   -8.48122   -8.44855   -8.48123   -8.56980   -8.69143
   -8.82156   -8.94093   -9.03510   -9.02931   -8.74170   -8.62743   -8.70775
   -9.34630   -9.83849   -9.73089   -9.59120   -9.45800   -9.36045   -9.32440
   -9.36046   -9.45803   -9.59123   -9.73092   -9.83852   -9.34633   -8.70778
   -8.62743   -9.00318   -8.99151   -9.02248   -9.69675  -10.44819  -10.52383
  -10.38948  -10.28502  -10.24597  -10.28504  -10.38951  -10.52387  -10.44824
   -9.69679   -9.02250   -8.99150   -9.00318   -9.29730   -9.28172   -9.24044
   -9.26907   -9.95920  -10.67521  -11.19831  -11.20077  -11.16475  -11.20078
  -11.19833  -10.67525   -9.95925   -9.26909   -9.24043   -9.28171   -9.29730
   -9.50909   -9.49250   -9.44530   -9.37670   -9.42323  -10.08384  -10.67291
  -11.07898  -11.22869  -11.07900  -10.67294  -10.08388   -9.42326   -9.37668
   -9.44528   -9.49249   -9.50909   -9.63713   -9.62023   -9.57149   -9.49642
   -9.40566   -9.52554  -10.09856  -10.49680  -10.64138  -10.49681  -10.09858
   -9.52556   -9.40564   -9.49639   -9.57147   -9.62022   -9.63713   -9.67995
   -9.66296   -9.61385   -9.53765   -9.44245   -9.34022   -9.81623  -10.21401
  -10.35787  -10.21400   -9.81621   -9.34019   -9.44242   -9.53762   -9.61383
   -9.66295   -9.67995   -9.63683   -9.61994   -9.57123   -9.49622   -9.40569
   -9.52586  -10.09820  -10.49635  -10.64088  -10.49632  -10.09815   -9.52579
   -9.40566   -9.49619   -9.57121   -9.61993   -9.63683   -9.50846   -9.49190
   -9.44476   -9.37639   -9.42411  -10.08355  -10.67244  -11.07844  -11.22810
  -11.07840  -10.67238  -10.08346   -9.42404   -9.37637   -9.44474   -9.49189
   -9.50846   -9.29626   -9.28072   -9.23964   -9.26972   -9.95906  -10.67492
  -11.19860  -11.20172  -11.16569  -11.20171  -11.19856  -10.67484   -9.95896
   -9.26967   -9.23962   -9.28071   -9.29626   -9.00155   -8.98999   -9.02241
   -9.69673  -10.44856  -10.52538  -10.39098  -10.28647  -10.24739  -10.28645
  -10.39095  -10.52535  -10.44848   -9.69664   -9.02239   -8.98999   -9.00155
   -8.62482   -8.70718   -9.34631   -9.84088   -9.73334   -9.59364   -9.46041
   -9.36282   -9.32674   -9.36280   -9.46039   -9.59361   -9.73331   -9.84085
   -9.34624   -8.70717   -8.62482   -8.74122   -9.02997   -9.03895   -8.94484
   -8.82554   -8.69548   -8.57391   -8.48537   -8.45269   -8.48535   -8.57388
   -8.69545   -8.82551   -8.94481   -9.03893   -9.02993   -8.74122   -8.30691
   -8.28775   -8.23209   -8.14537   -8.03668   -7.91911   -7.81030   -7.73157
   -7.70255   -7.73155   -7.81027   -7.91908   -8.03664   -8.14534   -8.23207
   -8.28774   -8.30691   -7.66730   -7.64863   -7.59590   -7.51533   -7.41574
   -7.30959   -7.21303   -7.14445   -7.11952   -7.14443   -7.21299   -7.30955
   -7.41570   -7.51529   -7.59587   -7.64862   -7.66730   -7.19304   -7.17483
   -7.12392   -7.04732   -6.95425   -6.85689   -6.77036   -6.71086   -6.68998
   -6.71085   -6.77033   -6.85686   -6.95421   -7.04729   -7.12390   -7.17481
   -7.19304   -6.97127   -6.95432   -6.90568   -6.83168   -6.74199   -6.64898
   -6.56750   -6.51278   -6.49406   -6.51277   -6.56748   -6.64896   -6.74197
   -6.83166   -6.90566   -6.95431   -6.97127   -7.18798   -7.16977   -7.11885
   -7.04216   -6.94895   -6.85145   -6.76477   -6.70518   -6.68426   -6.70518
   -6.76476   -6.85143   -6.94894   -7.04214   -7.11883   -7.16977   -7.18798
   -8.05265   -8.03121   -7.97409   -7.88864   -7.78324   -7.67060   -7.56762
   -7.49390   -7.46688   -7.49389   -7.56760   -7.67058   -7.78322   -7.88862
   -7.97407   -8.03120   -8.05265   -8.56141   -8.53752   -8.47770   -8.38773
   -8.27576   -8.15509   -8.04381   -7.96352   -7.93399   -7.96352   -8.04379
   -8.15507   -8.27574   -8.38772   -8.47769   -8.53752   -8.56141   -8.74170
   -9.02930   -9.03510   -8.94092   -8.82156   -8.69142   -8.56979   -8.48122
   -8.44855   -8.48122   -8.56978   -8.69140   -8.82154   -8.94091   -9.03509
   -9.02928   -8.74170   -8.86728   -8.89866   -9.42563   -9.58072   -9.45170
   -9.30955   -9.17474   -9.07563   -9.03890   -9.07563   -9.17475   -9.30955
   -9.45171   -9.58072   -9.42563   -8.89866   -8.86728   -9.43073   -9.41896
   -9.41324   -9.83055  -10.21893  -10.07494   -9.93035   -9.82326   -9.78347
   -9.82328   -9.93037  -10.07497  -10.21896   -9.83057   -9.41324   -9.41895
   -9.43073   -9.83067   -9.81376   -9.76851   -9.73114  -10.11691  -10.76609
  -10.78350  -10.67695  -10.63570  -10.67697  -10.78353  -10.76612  -10.11694
   -9.73113   -9.76850   -9.81376   -9.83067  -10.11039  -10.09192  -10.03953
   -9.96229   -9.89527  -10.24882  -10.81824  -11.21906  -11.37483  -11.21907
  -10.81826  -10.24885   -9.89525   -9.96227  -10.03951  -10.09191  -10.11039
  -10.29158  -10.27271  -10.21825  -10.13386  -10.02966   -9.93464  -10.21489
  -10.60270  -10.74611  -10.60271  -10.21490   -9.93462  -10.02963  -10.13383
  -10.21823  -10.27270  -10.29158  -10.38128  -10.36231  -10.30722  -10.22068
  -10.11102   -9.99194   -9.88445  -10.11279  -10.25468  -10.11278   -9.88442
   -9.99191  -10.11098  -10.22065  -10.30720  -10.36230  -10.38128  -10.38106
  -10.36209  -10.30700  -10.22048  -10.11085   -9.99185   -9.88468  -10.11238
  -10.25419  -10.11235   -9.88464   -9.99181  -10.11081  -10.22045  -10.30698
  -10.36207  -10.38106  -10.29087  -10.27200  -10.21758  -10.13324  -10.02919
   -9.93471  -10.21441  -10.60187  -10.74520  -10.60183  -10.21434   -9.93466
  -10.02915  -10.13321  -10.21755  -10.27199  -10.29087  -10.10906  -10.09060
  -10.03827   -9.96120   -9.89488  -10.24857  -10.81760  -11.21832  -11.37393
  -11.21828  -10.81752  -10.24848   -9.89484   -9.96117  -10.03825  -10.09059
  -10.10906   -9.82843   -9.81155   -9.76644   -9.72985  -10.11685  -10.76664
  -10.78578  -10.67916  -10.63786  -10.67914  -10.78576  -10.76657  -10.11675
   -9.72982   -9.76642   -9.81154   -9.82843   -9.42705   -9.41537   -9.41047
   -9.83040  -10.22264  -10.07867   -9.93408   -9.82698   -9.78717   -9.82696
   -9.93405  -10.07863  -10.22261   -9.83032   -9.41045   -9.41536   -9.42705
   -8.86216   -8.89479   -9.42502   -9.58550   -9.45663   -9.31465   -9.17999
   -9.08099   -9.04429   -9.08097   -9.17996   -9.31460   -9.45659   -9.58547
   -9.42494   -8.89479   -8.86216   -8.74105   -9.02955   -9.03957   -8.94554
   -8.82633   -8.69635   -8.57488   -8.48642   -8.45377   -8.48639   -8.57484
   -8.69631   -8.82628   -8.94550   -9.03954   -9.02949   -8.74105   -8.56528
   -8.54136   -8.48159   -8.39172   -8.27987   -8.15936   -8.04821   -7.96802
   -7.93852   -7.96800   -8.04817   -8.15931   -8.27982   -8.39167   -8.48155
   -8.54134   -8.56528   -8.05605   -8.03459   -7.97748   -7.89210   -7.78683
   -7.67432   -7.57148   -7.49787   -7.47089   -7.49785   -7.57145   -7.67428
   -7.78678   -7.89206   -7.97745   -8.03457   -8.05605   -7.66731   -7.64864
   -7.59591   -7.51534   -7.41576   -7.30960   -7.21304   -7.14446   -7.11953
   -7.14444   -7.21301   -7.30956   -7.41572   -7.51530   -7.59588   -7.64863
   -7.66731   -7.66521   -7.64657   -7.59385   -7.51325   -7.41360   -7.30734
   -7.21067   -7.14200   -7.11704   -7.14199   -7.21065   -7.30732   -7.41357
   -7.51323   -7.59384   -7.64656   -7.66521   -8.05265   -8.03121   -7.97409
   -7.88864   -7.78324   -7.67060   -7.56762   -7.49390   -7.46688   -7.49389
   -7.56760   -7.67058   -7.78322   -7.88862   -7.97407   -8.03120   -8.05265
   -8.87403   -8.99889   -8.94844   -8.85578   -8.73830   -8.61101   -8.49333
   -8.40834   -8.37707   -8.40833   -8.49331   -8.61099   -8.73828   -8.85576
   -8.94842   -8.99888   -8.87403   -8.65462   -8.94626   -9.42468   -9.35856
   -9.23789   -9.10408   -8.97915   -8.88847   -8.85506   -8.88846   -8.97913
   -9.10406   -9.23786   -9.35854   -9.42465   -8.94624   -8.65462   -8.62743
   -8.70778   -9.34632   -9.83851   -9.73091   -9.59122   -9.45802   -9.36045
   -9.32439   -9.36044   -9.45800   -9.59119   -9.73088   -9.83848   -9.34631
   -8.70776   -8.62743   -9.43074   -9.41896   -9.41324   -9.83056  -10.21895
  -10.07496   -9.93036   -9.82327   -9.78346   -9.82326   -9.93035  -10.07494
  -10.21893   -9.83056   -9.41325   -9.41897   -9.43074  -10.16902  -10.15167
  -10.10530  -10.05673  -10.25072  -10.62525  -10.46485  -10.34548  -10.30082
  -10.34548  -10.46485  -10.62525  -10.25073  -10.05673  -10.10530  -10.15168
  -10.16902  -10.67414  -10.65415  -10.59781  -10.51453  -10.42466  -10.46033
  -10.90938  -11.03655  -10.99396  -11.03656  -10.90939  -10.46033  -10.42464
  -10.51451  -10.59780  -10.65415  -10.67414  -10.96737  -10.94667  -10.88708
  -10.79470  -10.67973  -10.55960  -10.48097  -10.68786  -10.82157  -10.68786
  -10.48095  -10.55957  -10.67969  -10.79467  -10.88706  -10.94666  -10.96737
  -11.12436  -11.10378  -11.04355  -10.94791  -10.82599  -10.69292  -10.56767
  -10.47246  -10.43268  -10.47244  -10.56764  -10.69288  -10.82595  -10.94788
  -11.04353  -11.10377  -11.12436  -11.17436  -11.15389  -11.09361  -10.99710
  -10.87339  -10.73785  -10.61005  -10.51447  -10.47815  -10.51445  -10.61001
  -10.73781  -10.87335  -10.99706  -11.09359  -11.15388  -11.17436  -11.12366
  -11.10308  -11.04286  -10.94723  -10.82534  -10.69232  -10.56712  -10.47190
  -10.43201  -10.47187  -10.56709  -10.69227  -10.82530  -10.94719  -11.04283
  -11.10307  -11.12366  -10.96577  -10.94508  -10.88549  -10.79315  -10.67826
  -10.55833  -10.48027  -10.68675  -10.82023  -10.68670  -10.48022  -10.55829
  -10.67822  -10.79311  -10.88547  -10.94506  -10.96577  -10.67122  -10.65124
  -10.59492  -10.51172  -10.42217  -10.45942  -10.90885  -11.03981  -10.99721
  -11.03979  -10.90877  -10.45935  -10.42214  -10.51168  -10.59490  -10.65123
  -10.67122  -10.16488  -10.14755  -10.10124  -10.05309  -10.24951  -10.62971
  -10.46944  -10.35017  -10.30554  -10.35014  -10.46940  -10.62967  -10.24943
  -10.05307  -10.10123  -10.14754  -10.16488   -9.42674   -9.41504   -9.41000
   -9.82985  -10.22263  -10.07891   -9.93442   -9.82740   -9.78761   -9.82737
   -9.93438  -10.07886  -10.22257   -9.82975   -9.40999   -9.41503   -9.42674
   -8.62387   -8.70630   -9.34566   -9.84103   -9.73390   -9.59435   -9.46124
   -9.36374   -9.32770   -9.36371   -9.46120   -9.59429   -9.73384   -9.84096
   -9.34556   -8.70626   -8.62387   -8.65383   -8.94555   -9.42633   -9.36093
   -9.24040   -9.10673   -8.98191   -8.89130   -8.85792   -8.89128   -8.98186
   -9.10667   -9.24035   -9.36088   -9.42626   -8.94549   -8.65383   -8.87351
   -9.00053   -8.95047   -8.85792   -8.74056   -8.61341   -8.49585   -8.41095
   -8.37971   -8.41093   -8.49580   -8.61335   -8.74051   -8.85787   -8.95043
   -9.00049   -8.87351   -8.56528   -8.54137   -8.48160   -8.39173   -8.27988
   -8.15937   -8.04822   -7.96803   -7.93852   -7.96801   -8.04818   -8.15932
   -8.27983   -8.39168   -8.48156   -8.54135   -8.56528   -8.30693   -8.28777
   -8.23211   -8.14539   -8.03670   -7.91913   -7.81031   -7.73158   -7.70257
   -7.73157   -7.81029   -7.91909   -8.03666   -8.14536   -8.23208   -8.28776
   -8.30693   -8.56345   -8.53961   -8.47984   -8.38991   -8.27797   -8.15733
   -8.04605   -7.96576   -7.93622   -7.96575   -8.04603   -8.15730   -8.27794
   -8.38989   -8.47983   -8.53960   -8.56345   -8.87403   -8.99889   -8.94844
   -8.85578   -8.73830   -8.61101   -8.49333   -8.40834   -8.37707   -8.40833
   -8.49331   -8.61099   -8.73828   -8.85576   -8.94842   -8.99888   -8.87403
   -8.48070   -8.77350   -9.44930   -9.84251   -9.73631   -9.59856   -9.46800
   -9.37295   -9.33790   -9.37294   -9.46798   -9.59853   -9.73629   -9.84248
   -9.44925   -8.77347   -8.48070   -8.32773   -8.52324   -9.20616   -9.99498
  -10.21399  -10.08263   -9.94736   -9.84753   -9.81057   -9.84751   -9.94734
  -10.08260  -10.21396   -9.99494   -9.20613   -8.52321   -8.32773   -9.00319
   -8.99151   -9.02250   -9.69678  -10.44822  -10.52385  -10.38949  -10.28503
  -10.24597  -10.28502  -10.38947  -10.52382  -10.44819   -9.69675   -9.02249
   -8.99152   -9.00319   -9.83069   -9.81377   -9.76851   -9.73113  -10.11692
  -10.76610  -10.78351  -10.67696  -10.63569  -10.67694  -10.78349  -10.76609
  -10.11692   -9.73115   -9.76852   -9.81378   -9.83069  -10.67415  -10.65416
  -10.59781  -10.51452  -10.42465  -10.46033  -10.90938  -11.03655  -10.99396
  -11.03654  -10.90938  -10.46034  -10.42467  -10.51454  -10.59782  -10.65416
  -10.67415  -11.37326  -11.35138  -11.28895  -11.19390  -11.07790  -10.95692
  -10.85184  -10.80189  -10.84831  -10.80189  -10.85184  -10.95692  -11.07790
  -11.19390  -11.28895  -11.35138  -11.37326  -11.76945  -11.74719  -11.68233
  -11.58076  -11.45339  -11.31582  -11.18695  -11.08893  -11.04985  -11.08891
  -11.18693  -11.31579  -11.45337  -11.58074  -11.68231  -11.74719  -11.76945
  -11.92401  -11.90215  -11.83713  -11.73286  -11.60005  -11.45538  -11.31990
  -11.21931  -11.18118  -11.21929  -11.31987  -11.45534  -11.60001  -11.73282
  -11.83710  -11.90214  -11.92401  -11.92342  -11.90156  -11.83653  -11.73226
  -11.59945  -11.45479  -11.31932  -11.21872  -11.18058  -11.21870  -11.31928
  -11.45475  -11.59941  -11.73222  -11.83651  -11.90155  -11.92342  -11.76751
  -11.74524  -11.68036  -11.57877  -11.45140  -11.31381  -11.18493  -11.08683
  -11.04768  -11.08681  -11.18489  -11.31377  -11.45136  -11.57874  -11.68033
  -11.74523  -11.76751  -11.37010  -11.34821  -11.28575  -11.19066  -11.07462
  -10.95362  -10.84861  -10.79937  -10.84655  -10.79933  -10.84858  -10.95359
  -11.07459  -11.19063  -11.28574  -11.34820  -11.37010  -10.67121  -10.65122
  -10.59487  -10.51161  -10.42195  -10.45889  -10.90828  -11.03990  -10.99739
  -11.03987  -10.90820  -10.45883  -10.42193  -10.51159  -10.59486  -10.65122
  -10.67121   -9.82822   -9.81131   -9.76613   -9.72927  -10.11601  -10.76581
  -10.78593  -10.67947  -10.63821  -10.67944  -10.78588  -10.76571  -10.11589
   -9.72925   -9.76612   -9.81131   -9.82822   -9.00089   -8.98928   -9.02128
   -9.69581  -10.44767  -10.52564  -10.39146  -10.28705  -10.24799  -10.28702
  -10.39141  -10.52558  -10.44755   -9.69569   -9.02125   -8.98928   -9.00089
   -8.32543   -8.52223   -9.20520   -9.99416  -10.21531  -10.08422   -9.94906
   -9.84929   -9.81235   -9.84927   -9.94901  -10.08416  -10.21524   -9.99404
   -9.20509   -8.52216   -8.32543   -8.47982   -8.77266   -9.44849   -9.84343
   -9.73762   -9.60001   -9.46958   -9.37461   -9.33958   -9.37458   -9.46953
   -9.59996   -9.73756   -9.84337   -9.44838   -8.77259   -8.47982   -8.65383
   -8.94555   -9.42633   -9.36093   -9.24041   -9.10673   -8.98191   -8.89131
   -8.85792   -8.89128   -8.98187   -9.10668   -9.24035   -9.36088   -9.42627
   -8.94549   -8.65383   -8.74104   -9.02955   -9.03959   -8.94555   -8.82634
   -8.69637   -8.57489   -8.48643   -8.45379   -8.48641   -8.57485   -8.69632
   -8.82629   -8.94551   -9.03956   -9.02949   -8.74104   -8.74122   -9.02996
   -9.03896   -8.94484   -8.82555   -8.69549   -8.57392   -8.48538   -8.45271
   -8.48536   -8.57389   -8.69546   -8.82552   -8.94482   -9.03894   -9.02993
   -8.74122   -8.65435   -8.94612   -9.42584   -9.35984   -9.23917   -9.10536
   -8.98042   -8.88972   -8.85630   -8.88971   -8.98040   -9.10534   -9.23915
   -9.35982   -9.42581   -8.94609   -8.65435   -8.48070   -8.77350   -9.44930
   -9.84251   -9.73631   -9.59856   -9.46800   -9.37295   -9.33790   -9.37294
   -9.46798   -9.59853   -9.73629   -9.84248   -9.44925   -8.77347   -8.48070
   -8.29675   -8.30310   -8.99167   -9.80703  -10.54033  -10.57643  -10.44452
  -10.34240  -10.30433  -10.34239  -10.44450  -10.57640  -10.54028   -9.80697
   -8.99162   -8.30307   -8.29675   -8.64456   -8.63152   -8.72534   -9.51869
  -10.32103  -10.93289  -10.90014  -10.80018  -10.76135  -10.80017  -10.90011
  -10.93286  -10.32099   -9.51865   -8.72529   -8.63152   -8.64456   -9.29731
   -9.28172   -9.24044   -9.26909   -9.95923  -10.67524  -11.19832  -11.20077
  -11.16474  -11.20076  -11.19830  -10.67521   -9.95920   -9.26908   -9.24045
   -9.28173   -9.29731  -10.11040  -10.09192  -10.03953   -9.96228   -9.89526
  -10.24883  -10.81825  -11.21906  -11.37483  -11.21906  -10.81824  -10.24882
   -9.89528   -9.96231  -10.03955  -10.09193  -10.11040  -10.96738  -10.94668
  -10.88707  -10.79468  -10.67970  -10.55958  -10.48095  -10.68786  -10.82156
  -10.68786  -10.48098  -10.55961  -10.67974  -10.79471  -10.88710  -10.94669
  -10.96738  -11.76946  -11.74719  -11.68232  -11.58075  -11.45337  -11.31579
  -11.18694  -11.08892  -11.04986  -11.08893  -11.18696  -11.31582  -11.45340
  -11.58077  -11.68234  -11.74720  -11.76946  -12.35534  -12.33204  -12.26388
  -12.15752  -12.02520  -11.88417  -11.75582  -11.66366  -11.62953  -11.66366
  -11.75582  -11.88418  -12.02521  -12.15752  -12.26388  -12.33204  -12.35534
  -12.54790  -12.52442  -12.45550  -12.34738  -12.21233  -12.06826  -11.93766
  -11.84505  -11.81127  -11.84503  -11.93764  -12.06823  -12.21231  -12.34736
  -12.45549  -12.52442  -12.54790  -12.35346  -12.33016  -12.26197  -12.15554
  -12.02315  -11.88201  -11.75351  -11.66119  -11.62697  -11.66118  -11.75349
  -11.88199  -12.02313  -12.15552  -12.26195  -12.33015  -12.35346  -11.76745
  -11.74518  -11.68027  -11.57866  -11.45123  -11.31360  -11.18467  -11.08656
  -11.04743  -11.08655  -11.18466  -11.31358  -11.45122  -11.57865  -11.68027
  -11.74517  -11.76745  -10.96577  -10.94507  -10.88545  -10.79304  -10.67807
  -10.55801  -10.47961  -10.68579  -10.81932  -10.68574  -10.47958  -10.55800
  -10.67806  -10.79303  -10.88544  -10.94506  -10.96577  -10.10896  -10.09048
  -10.03810   -9.96091   -9.89421  -10.24735  -10.81650  -11.21731  -11.37296
  -11.21726  -10.81641  -10.24724   -9.89419   -9.96090  -10.03809  -10.09048
  -10.10896   -9.29585   -9.28028   -9.23908   -9.26835   -9.95780  -10.67376
  -11.19784  -11.20201  -11.16605  -11.20198  -11.19777  -10.67364   -9.95767
   -9.26829   -9.23907   -9.28027   -9.29585   -8.64301   -8.63001   -8.72437
   -9.51738  -10.31975  -10.93255  -10.90112  -10.80129  -10.76248  -10.80126
  -10.90107  -10.93245  -10.31962   -9.51725   -8.72426   -8.63000   -8.64301
   -8.29519   -8.30180   -8.99050   -9.80592  -10.53958  -10.57717  -10.44546
  -10.34343  -10.30538  -10.34340  -10.44541  -10.57710  -10.53947   -9.80579
   -8.99038   -8.30172   -8.29519   -8.32543   -8.52223   -9.20520   -9.99416
  -10.21531  -10.08422   -9.94907   -9.84930   -9.81236   -9.84927   -9.94902
  -10.08416  -10.21524   -9.99404   -9.20509   -8.52216   -8.32543   -8.62386
   -8.70629   -9.34566   -9.84104   -9.73391   -9.59436   -9.46126   -9.36375
   -9.32771   -9.36373   -9.46121   -9.59431   -9.73386   -9.84098   -9.34556
   -8.70626   -8.62386   -8.86214   -8.89478   -9.42501   -9.58552   -9.45665
   -9.31466   -9.18001   -9.08101   -9.04431   -9.08099   -9.17998   -9.31462
   -9.45661   -9.58548   -9.42494   -8.89478   -8.86214   -8.62482   -8.70718
   -9.34630   -9.84088   -9.73334   -9.59364   -9.46041   -9.36282   -9.32675
   -9.36281   -9.46039   -9.59362   -9.73332   -9.84085   -9.34624   -8.70717
   -8.62482   -8.32679   -8.52325   -9.20610   -9.99504  -10.21481  -10.08344
   -9.94815   -9.84830   -9.81133   -9.84828   -9.94813  -10.08342  -10.21478
   -9.99497   -9.20603   -8.52322   -8.32679   -8.29675   -8.30310   -8.99167
   -9.80703  -10.54033  -10.57643  -10.44452  -10.34240  -10.30433  -10.34239
  -10.44450  -10.57640  -10.54028   -9.80697   -8.99162   -8.30307   -8.29675
   -8.57557   -8.56135   -8.52037   -9.26990  -10.07802  -10.80131  -11.29745
  -11.28371  -11.24913  -11.28370  -11.29743  -10.80126  -10.07796   -9.26983
   -8.52037   -8.56135   -8.57557   -8.88915   -8.87456   -8.83408   -8.96666
   -9.75504  -10.48059  -11.07549  -11.48194  -11.65112  -11.48193  -11.07546
  -10.48055   -9.75499   -8.96662   -8.83409   -8.87456   -8.88915   -9.50910
   -9.49251   -9.44529   -9.37669   -9.42325  -10.08386  -10.67292  -11.07898
  -11.22868  -11.07898  -10.67290  -10.08383   -9.42324   -9.37671   -9.44531
   -9.49252   -9.50910  -10.29160  -10.27271  -10.21825  -10.13384  -10.02964
   -9.93462  -10.21489  -10.60269  -10.74610  -10.60269  -10.21488   -9.93466
  -10.02968  -10.13387  -10.21827  -10.27272  -10.29160  -11.12437  -11.10378
  -11.04354  -10.94789  -10.82596  -10.69288  -10.56765  -10.47245  -10.43269
  -10.47247  -10.56769  -10.69293  -10.82601  -10.94792  -11.04357  -11.10380
  -11.12437  -11.92402  -11.90215  -11.83711  -11.73283  -11.60001  -11.45534
  -11.31987  -11.21930  -11.18119  -11.21932  -11.31991  -11.45539  -11.60006
  -11.73287  -11.83714  -11.90216  -11.92402  -12.54790  -12.52442  -12.45549
  -12.34736  -12.21231  -12.06823  -11.93764  -11.84503  -11.81127  -11.84505
  -11.93766  -12.06826  -12.21234  -12.34738  -12.45551  -12.52443  -12.54790
  -12.54712  -12.52364  -12.45469  -12.34653  -12.21143  -12.06729  -11.93661
  -11.84393  -11.81013  -11.84393  -11.93661  -12.06728  -12.21143  -12.34652
  -12.45469  -12.52363  -12.54712  -11.92308  -11.90121  -11.83616  -11.73184
  -11.59898  -11.45426  -11.31875  -11.21813  -11.18000  -11.21813  -11.31875
  -11.45426  -11.59897  -11.73183  -11.83615  -11.90121  -11.92308  -11.12356