<pdos>
<nspin>2</nspin>
<norbitals>  28</norbitals>
<energy_values units="eV">
           -24.99997
           -24.94990
           -24.89983
           -24.84976
           -24.79969
           -24.74962
           -24.69954
           -24.64947
           -24.59940
           -24.54933
           -24.49926
           -24.44919
           -24.39912
           -24.34904
           -24.29897
           -24.24890
           -24.19883
           -24.14876
           -24.09869
           -24.04862
           -23.99854
           -23.94847
           -23.89840
           -23.84833
           -23.79826
           -23.74819
           -23.69811
           -23.64804
           -23.59797
           -23.54790
           -23.49783
           -23.44776
           -23.39769
           -23.34761
           -23.29754
           -23.24747
           -23.19740
           -23.14733
           -23.09726
           -23.04719
           -22.99711
           -22.94704
           -22.89697
           -22.84690
           -22.79683
           -22.74676
           -22.69669
           -22.64661
           -22.59654
           -22.54647
           -22.49640
           -22.44633
           -22.39626
           -22.34618
           -22.29611
           -22.24604
           -22.19597
           -22.14590
           -22.09583
           -22.04576
           -21.99568
           -21.94561
           -21.89554
           -21.84547
           -21.79540
           -21.74533
           -21.69526
           -21.64518
           -21.59511
           -21.54504
           -21.49497
           -21.44490
           -21.39483
           -21.34476
           -21.29468
           -21.24461
           -21.19454
           -21.14447
           -21.09440
           -21.04433
           -20.99426
           -20.94418
           -20.89411
           -20.84404
           -20.79397
           -20.74390
           -20.69383
           -20.64375
           -20.59368
           -20.54361
           -20.49354
           -20.44347
           -20.39340
           -20.34333
           -20.29325
           -20.24318
           -20.19311
           -20.14304
           -20.09297
           -20.04290
           -19.99283
           -19.94275
           -19.89268
           -19.84261
           -19.79254
           -19.74247
           -19.69240
           -19.64233
           -19.59225
           -19.54218
           -19.49211
           -19.44204
           -19.39197
           -19.34190
           -19.29182
           -19.24175
           -19.19168
           -19.14161
           -19.09154
           -19.04147
           -18.99140
           -18.94132
           -18.89125
           -18.84118
           -18.79111
           -18.74104
           -18.69097
           -18.64090
           -18.59082
           -18.54075
           -18.49068
           -18.44061
           -18.39054
           -18.34047
           -18.29040
           -18.24032
           -18.19025
           -18.14018
           -18.09011
           -18.04004
           -17.98997
           -17.93989
           -17.88982
           -17.83975
           -17.78968
           -17.73961
           -17.68954
           -17.63947
           -17.58939
           -17.53932
           -17.48925
           -17.43918
           -17.38911
           -17.33904
           -17.28897
           -17.23889
           -17.18882
           -17.13875
           -17.08868
           -17.03861
           -16.98854
           -16.93847
           -16.88839
           -16.83832
           -16.78825
           -16.73818
           -16.68811
           -16.63804
           -16.58797
           -16.53789
           -16.48782
           -16.43775
           -16.38768
           -16.33761
           -16.28754
           -16.23746
           -16.18739
           -16.13732
           -16.08725
           -16.03718
           -15.98711
           -15.93704
           -15.88696
           -15.83689
           -15.78682
           -15.73675
           -15.68668
           -15.63661
           -15.58654
           -15.53646
           -15.48639
           -15.43632
           -15.38625
           -15.33618
           -15.28611
           -15.23604
           -15.18596
           -15.13589
           -15.08582
           -15.03575
           -14.98568
           -14.93561
           -14.88553
           -14.83546
           -14.78539
           -14.73532
           -14.68525
           -14.63518
           -14.58511
           -14.53503
           -14.48496
           -14.43489
           -14.38482
           -14.33475
           -14.28468
           -14.23461
           -14.18453
           -14.13446
           -14.08439
           -14.03432
           -13.98425
           -13.93418
           -13.88411
           -13.83403
           -13.78396
           -13.73389
           -13.68382
           -13.63375
           -13.58368
           -13.53360
           -13.48353
           -13.43346
           -13.38339
           -13.33332
           -13.28325
           -13.23318
           -13.18310
           -13.13303
           -13.08296
           -13.03289
           -12.98282
           -12.93275
           -12.88268
           -12.83260
           -12.78253
           -12.73246
           -12.68239
           -12.63232
           -12.58225
           -12.53218
           -12.48210
           -12.43203
           -12.38196
           -12.33189
           -12.28182
           -12.23175
           -12.18168
           -12.13160
           -12.08153
           -12.03146
           -11.98139
           -11.93132
           -11.88125
           -11.83117
           -11.78110
           -11.73103
           -11.68096
           -11.63089
           -11.58082
           -11.53075
           -11.48067
           -11.43060
           -11.38053
           -11.33046
           -11.28039
           -11.23032
           -11.18025
           -11.13017
           -11.08010
           -11.03003
           -10.97996
           -10.92989
           -10.87982
           -10.82975
           -10.77967
           -10.72960
           -10.67953
           -10.62946
           -10.57939
           -10.52932
           -10.47924
           -10.42917
           -10.37910
           -10.32903
           -10.27896
           -10.22889
           -10.17882
           -10.12874
           -10.07867
           -10.02860
            -9.97853
            -9.92846
            -9.87839
            -9.82832
            -9.77824
            -9.72817
            -9.67810
            -9.62803
            -9.57796
            -9.52789
            -9.47782
            -9.42774
            -9.37767
            -9.32760
            -9.27753
            -9.22746
            -9.17739
            -9.12731
            -9.07724
            -9.02717
            -8.97710
            -8.92703
            -8.87696
            -8.82689
            -8.77681
            -8.72674
            -8.67667
            -8.62660
            -8.57653
            -8.52646
            -8.47639
            -8.42631
            -8.37624
            -8.32617
            -8.27610
            -8.22603
            -8.17596
            -8.12589
            -8.07581
            -8.02574
            -7.97567
            -7.92560
            -7.87553
            -7.82546
            -7.77539
            -7.72531
            -7.67524
            -7.62517
            -7.57510
            -7.52503
            -7.47496
            -7.42488
            -7.37481
            -7.32474
            -7.27467
            -7.22460
            -7.17453
            -7.12446
            -7.07438
            -7.02431
            -6.97424
            -6.92417
            -6.87410
            -6.82403
            -6.77396
            -6.72388
            -6.67381
            -6.62374
            -6.57367
            -6.52360
            -6.47353
            -6.42346
            -6.37338
            -6.32331
            -6.27324
            -6.22317
            -6.17310
            -6.12303
            -6.07295
            -6.02288
            -5.97281
            -5.92274
            -5.87267
            -5.82260
            -5.77253
            -5.72245
            -5.67238
            -5.62231
            -5.57224
            -5.52217
            -5.47210
            -5.42203
            -5.37195
            -5.32188
            -5.27181
            -5.22174
            -5.17167
            -5.12160
            -5.07153
            -5.02145
            -4.97138
            -4.92131
            -4.87124
            -4.82117
            -4.77110
            -4.72102
            -4.67095
            -4.62088
            -4.57081
            -4.52074
            -4.47067
            -4.42060
            -4.37052
            -4.32045
            -4.27038
            -4.22031
            -4.17024
            -4.12017
            -4.07010
            -4.02002
            -3.96995
            -3.91988
            -3.86981
            -3.81974
            -3.76967
            -3.71960
            -3.66952
            -3.61945
            -3.56938
            -3.51931
            -3.46924
            -3.41917
            -3.36910
            -3.31902
            -3.26895
            -3.21888
            -3.16881
            -3.11874
            -3.06867
            -3.01859
            -2.96852
            -2.91845
            -2.86838
            -2.81831
            -2.76824
            -2.71817
            -2.66809
            -2.61802
            -2.56795
            -2.51788
            -2.46781
            -2.41774
            -2.36767
            -2.31759
            -2.26752
            -2.21745
            -2.16738
            -2.11731
            -2.06724
            -2.01717
            -1.96709
            -1.91702
            -1.86695
            -1.81688
            -1.76681
            -1.71674
            -1.66666
            -1.61659
            -1.56652
            -1.51645
            -1.46638
            -1.41631
            -1.36624
            -1.31616
            -1.26609
            -1.21602
            -1.16595
            -1.11588
            -1.06581
            -1.01574
            -0.96566
            -0.91559
            -0.86552
            -0.81545
            -0.76538
            -0.71531
            -0.66524
            -0.61516
            -0.56509
            -0.51502
            -0.46495
            -0.41488
            -0.36481
            -0.31473
            -0.26466
            -0.21459
            -0.16452
            -0.11445
            -0.06438
            -0.01431
             0.03577
             0.08584
             0.13591
             0.18598
             0.23605
             0.28612
             0.33619
             0.38627
             0.43634
             0.48641
             0.53648
             0.58655
             0.63662
             0.68669
             0.73677
             0.78684
             0.83691
             0.88698
             0.93705
             0.98712
             1.03719
             1.08727
             1.13734
             1.18741
             1.23748
             1.28755
             1.33762
             1.38770
             1.43777
             1.48784
             1.53791
             1.58798
             1.63805
             1.68812
             1.73820
             1.78827
             1.83834
             1.88841
             1.93848
             1.98855
             2.03862
             2.08870
             2.13877
             2.18884
             2.23891
             2.28898
             2.33905
             2.38912
             2.43920
             2.48927
             2.53934
             2.58941
             2.63948
             2.68955
             2.73963
             2.78970
             2.83977
             2.88984
             2.93991
             2.98998
             3.04005
             3.09013
             3.14020
             3.19027
             3.24034
             3.29041
             3.34048
             3.39055
             3.44063
             3.49070
             3.54077
             3.59084
             3.64091
             3.69098
             3.74105
             3.79113
             3.84120
             3.89127
             3.94134
             3.99141
             4.04148
             4.09155
             4.14163
             4.19170
             4.24177
             4.29184
             4.34191
             4.39198
             4.44206
             4.49213
             4.54220
             4.59227
             4.64234
             4.69241
             4.74248
             4.79256
             4.84263
             4.89270
             4.94277
             4.99284
             5.04291
             5.09298
             5.14306
             5.19313
             5.24320
             5.29327
             5.34334
             5.39341
             5.44348
             5.49356
             5.54363
             5.59370
             5.64377
             5.69384
             5.74391
             5.79399
             5.84406
             5.89413
             5.94420
             5.99427
             6.04434
             6.09441
             6.14449
             6.19456
             6.24463
             6.29470
             6.34477
             6.39484
             6.44491
             6.49499
             6.54506
             6.59513
             6.64520
             6.69527
             6.74534
             6.79541
             6.84549
             6.89556
             6.94563
             6.99570
             7.04577
             7.09584
             7.14592
             7.19599
             7.24606
             7.29613
             7.34620
             7.39627
             7.44634
             7.49642
             7.54649
             7.59656
             7.64663
             7.69670
             7.74677
             7.79684
             7.84692
             7.89699
             7.94706
             7.99713
             8.04720
             8.09727
             8.14734
             8.19742
             8.24749
             8.29756
             8.34763
             8.39770
             8.44777
             8.49784
             8.54792
             8.59799
             8.64806
             8.69813
             8.74820
             8.79827
             8.84835
             8.89842
             8.94849
             8.99856
             9.04863
             9.09870
             9.14877
             9.19885
             9.24892
             9.29899
             9.34906
             9.39913
             9.44920
             9.49927
             9.54935
             9.59942
             9.64949
             9.69956
             9.74963
             9.79970
             9.84977
             9.89985
             9.94992
             9.99999
</energy_values>
<orbital 
 index="                        1" 
 atom_index="                        1" 
 species="Mn" 
 position="   0.000000   0.000000   0.000000" 
 n="                        4" 
 l="                        0" 
 m="                        0" 
 z="                        1" 
> 
<data>
   0.00000   0.00000
   0.00000   0.00000
   0.00000   0.00000
   0.00000   0.00000
   0.00000   0.00000
   0.00000   0.00000
   0.00000   0.00000
   0.00000   0.00000
   0.00000   0.00000
   0.00000   0.00000
   0.00000   0.00000
   0.00000   0.00000
   0.00000   0.00000
   0.00000   0.00000
   0.00000   0.00000
   0.00000   0.00000
   0.00000   0.00000
   0.00000   0.00000
   0.00000   0.00000
   0.00000   0.00000
   0.00000   0.00000
   0.00000   0.00000
   0.00000   0.00000
   0.00000   0.00000
   0.00000   0.00000
  -0.00002   0.00000
  -0.00017   0.00000
  -0.00073   0.00000
  -0.00192   0.00000
  -0.00306   0.00000
  -0.00296   0.00000
  -0.00181   0.00000
  -0.00133   0.00000
  -0.00380   0.00000
  -0.01131   0.00000
  -0.02114  -0.00003
  -0.02406  -0.00030
  -0.01730  -0.00162
  -0.01125  -0.00522
  -0.01606  -0.01021
  -0.02869  -0.01212
  -0.03387  -0.00882
  -0.02353  -0.00474
  -0.00929  -0.00632
  -0.00489  -0.01848
  -0.01026  -0.03834
  -0.01339  -0.04875
  -0.00154  -0.03855
   0.01903  -0.02357
   0.02739  -0.02502
   0.01952  -0.04109
   0.00856  -0.05002
   0.00248  -0.04127
   0.00048  -0.02936
   0.00006  -0.02669
   0.00000  -0.03126
   0.00000  -0.03507
   0.00000  -0.02478
   0.00000   0.00091
   0.00000   0.02071
   0.00000   0.02099
   0.00000   0.01128
   0.00000   0.00376
   0.00000   0.00081
   0.00000   0.00011
   0.00000   0.00001
   0.00000   0.00000
   0.00000   0.00000
   0.00000   0.00000
   0.00000   0.00000
   0.00000   0.00000
   0.00000   0.00000
   0.00000   0.00000
   0.00000   0.00000
   0.00000   0.00000
   0.00000   0.00000
   0.00000   0.00000
   0.00000   0.00000
   0.00000   0.00000
   0.00000   0.00000
   0.00000   0.00000
   0.00000   0.00000
   0.00000   0.00000
   0.00000   0.00000
   0.00000   0.00000
   0.00000   0.00000
   0.00000   0.00000
   0.00000   0.00000
   0.00000   0.00000
   0.00000   0.00000
   0.00000   0.00000
   0.00000   0.00000
   0.00000   0.00000
   0.00000   0.00000
   0.00000   0.00000
   0.00000   0.00000
   0.00000   0.00000
   0.00000   0.00000
   0.00000   0.00000
   0.00000   0.00000
   0.00000   0.00000
   0.00000   0.00000
   0.00000   0.00000
   0.00000   0.00000
   0.00000   0.00000
   0.00000   0.00000
   0.00000   0.00000
   0.00000   0.00000
   0.00000   0.00000
   0.00000   0.00000
   0.00000   0.00000
   0.00000   0.00000
   0.00000   0.00000
   0.00000   0.00000
   0.00000   0.00000
   0.00000   0.00000
   0.00000   0.00000
   0.00000   0.00000
   0.00000   0.00000
   0.00000   0.00000
   0.00000   0.00000
   0.00000   0.00000
   0.00000   0.00000
   0.00000   0.00000
   0.00000   0.00000
   0.00000   0.00000
   0.00000   0.00000
   0.00000   0.00000
   0.00000   0.00000
   0.00000   0.00000
   0.00000   0.00000
   0.00000   0.00000
   0.00000   0.00000
   0.00000   0.00000
   0.00000   0.00000
   0.00000   0.00000
   0.00000   0.00000
   0.00000   0.00000
   0.00000   0.00000
   0.00000   0.00000
   0.00000   0.00000
   0.00000   0.00000
   0.00000   0.00000
   0.00000   0.00000
   0.00000   0.00000
   0.00000   0.00000
   0.00000   0.00000
   0.00000   0.00000
   0.00000   0.00000
   0.00000   0.00000
   0.00000   0.00000
   0.00000   0.00000
   0.00000   0.00000
   0.00000   0.00000
   0.00000   0.00000
   0.00000   0.00000
   0.00000   0.00000
   0.00000   0.00000
   0.00000   0.00000
   0.00000   0.00000
   0.00000   0.00000
   0.00000   0.00000
   0.00000   0.00000
   0.00000   0.00000
   0.00000   0.00000
   0.00000   0.00000
   0.00000   0.00000
   0.00000   0.00000
   0.00000   0.00000
   0.00000   0.00000
   0.00000   0.00000
   0.00000   0.00000
   0.00000   0.00000
   0.00000   0.00000
   0.00000   0.00000
   0.00000   0.00000
   0.00000   0.00000
   0.00000   0.00000
   0.00000   0.00000
   0.00000   0.00000
   0.00000   0.00000
   0.00000   0.00000
   0.00000   0.00000
   0.00000   0.00000
   0.00000   0.00000
   0.00000   0.00000
   0.00000   0.00000
   0.00000   0.00000
   0.00000   0.00000
   0.00000   0.00000
   0.00000   0.00000
   0.00000   0.00000
   0.00000   0.00000
   0.00000   0.00000
   0.00000   0.00000
   0.00000   0.00000
   0.00000   0.00000
   0.00000   0.00000
   0.00000   0.00000
   0.00000   0.00000
   0.00000   0.00000
   0.00000   0.00000
   0.00000   0.00000
   0.00000   0.00000
   0.00000   0.00000
   0.00000   0.00000
   0.00000   0.00000
   0.00000   0.00000
   0.00000   0.00000
   0.00000   0.00000
   0.00000   0.00000
   0.00000   0.00000
   0.00000   0.00000
   0.00000   0.00000
   0.00000   0.00000
   0.00000   0.00000
   0.00000   0.00000
   0.00000   0.00000
   0.00000   0.00000
   0.00000   0.00000
   0.00000   0.00000
   0.00000   0.00000
   0.00000   0.00000
   0.00000   0.00000
   0.00000   0.00000
   0.00000   0.00000
   0.00000   0.00000
   0.00000   0.00000
   0.00000   0.00000
   0.00000   0.00000
   0.00000   0.00000
   0.00000   0.00000
   0.00000   0.00000
   0.00000   0.00000
   0.00000   0.00000
   0.00000   0.00000
   0.00000   0.00000
   0.00000   0.00000
   0.00000   0.00000
   0.00000   0.00000
   0.00000   0.00000
   0.00000   0.00000
   0.00000   0.00000
   0.00000   0.00000
   0.00000   0.00000
   0.00000   0.00000
   0.00000   0.00000
   0.00000   0.00000
   0.00000   0.00000
   0.00000   0.00000
   0.00000   0.00000
   0.00000   0.00000
   0.00000   0.00000
   0.00000   0.00000
   0.00000   0.00000
   0.00000   0.00000
   0.00000   0.00000
   0.00000   0.00000
   0.00000   0.00000
   0.00000   0.00000
   0.00000   0.00000
   0.00000   0.00000
   0.00000   0.00000
   0.00000   0.00000
   0.00001   0.00000
   0.00018   0.00000
   0.00172   0.00000
   0.01028   0.00000
   0.03717   0.00000
   0.08163   0.00000
   0.10967   0.00000
   0.09397   0.00000
   0.06254   0.00000
   0.04879   0.00000
   0.04224   0.00000
   0.02708   0.00000
   0.01095   0.00000
   0.00290   0.00000
   0.00230   0.00000
   0.01110   0.00000
   0.03922   0.00000
   0.08465   0.00000
   0.11118   0.00000
   0.08886   0.00000
   0.04317   0.00000
   0.01252   0.00008
   0.00163   0.00085
  -0.00011   0.00584
   0.00192   0.02431
   0.00433   0.06139
   0.00310   0.09440
  -0.00307   0.09024
  -0.01290   0.06035
  -0.02090   0.04192
  -0.01975   0.03759
  -0.01128   0.02851
  -0.00391   0.01404
  -0.00082   0.00429
  -0.00009   0.00127
   0.00010   0.00321
   0.00065   0.01175
   0.00228   0.02646
   0.00485   0.03576
   0.00650   0.02842
   0.00663   0.00885
   0.00885  -0.01966
   0.01544  -0.06238
   0.02060  -0.10047
   0.01761  -0.09686
   0.00990  -0.06077
   0.00535  -0.03643
   0.00618  -0.03094
   0.00872  -0.02373
   0.00823  -0.01173
   0.00403  -0.00352
  -0.00156  -0.00064
  -0.00704  -0.00007
  -0.01000  -0.00001
  -0.00825  -0.00001
  -0.00406  -0.00012
  -0.00071  -0.00096
   0.00236  -0.00460
   0.00772  -0.01333
   0.01467  -0.02290
   0.01877  -0.02142
   0.01822  -0.00521
   0.01459   0.01258
   0.00910   0.01791
   0.00420   0.01181
   0.00264   0.00450
   0.00480   0.00103
   0.00851   0.00015
   0.01074   0.00010
   0.01097   0.00051
   0.00993   0.00172
   0.00708   0.00329
   0.00341   0.00292
   0.00103  -0.00118
   0.00019  -0.00592
   0.00002  -0.00546
   0.00000   0.00063
   0.00000   0.00599
   0.00000   0.00629
   0.00000   0.00396
   0.00000   0.00326
   0.00000   0.00516
   0.00000   0.00690
   0.00000   0.00579
   0.00000   0.00299
   0.00000   0.00115
   0.00000   0.00075
   0.00000   0.00091
   0.00000   0.00138
   0.00000   0.00245
   0.00000   0.00347
   0.00000   0.00317
   0.00000   0.00178
  -0.00001   0.00061
  -0.00009   0.00013
  -0.00059   0.00002
  -0.00234   0.00000
  -0.00578   0.00000
  -0.00928   0.00000
  -0.01043   0.00000
  -0.00895   0.00000
  -0.00613   0.00000
  -0.00370   0.00000
  -0.00280   0.00000
  -0.00253   0.00000
  -0.00175   0.00000
  -0.00077   0.00000
  -0.00019   0.00000
  -0.00004   0.00000
  -0.00062   0.00000
  -0.00375   0.00000
  -0.01131   0.00000
  -0.01958   0.00000
  -0.02023   0.00000
  -0.01302   0.00000
  -0.00687   0.00000
  -0.00673   0.00000
  -0.00905   0.00000
  -0.00801   0.00000
  -0.00291   0.00000
   0.00191   0.00000
   0.00308   0.00000
   0.00132   0.00000
  -0.00075   0.00000
  -0.00214   0.00000
  -0.00320   0.00000
  -0.00350   0.00000
  -0.00305   0.00000
  -0.00459   0.00000
  -0.00882   0.00000
  -0.01090   0.00000
  -0.00802   0.00000
  -0.00359   0.00000
  -0.00106   0.00000
  -0.00033   0.00000
  -0.00016   0.00000
   0.00001   0.00000
   0.00016   0.00000
   0.00052   0.00000
   0.00193   0.00000
   0.00500   0.00000
   0.00790   0.00000
   0.00670   0.00000
  -0.00035   0.00000
  -0.01019   0.00000
  -0.01615   0.00000
  -0.01377   0.00000
  -0.00695   0.00000
  -0.00196   0.00000
   0.00071   0.00000
   0.00458   0.00000
   0.01188   0.00000
   0.01855   0.00000
   0.01756   0.00000
   0.01009   0.00000
   0.00351   0.00000
   0.00074   0.00000
   0.00010   0.00000
   0.00001   0.00000
   0.00000   0.00000
   0.00000   0.00000
  -0.00001   0.00000
  -0.00007   0.00000
  -0.00044   0.00000
  -0.00168   0.00000
  -0.00389   0.00000
  -0.00546   0.00000
  -0.00465   0.00000
  -0.00240   0.00000
  -0.00075   0.00000
  -0.00014   0.00000
  -0.00002   0.00000
   0.00000   0.00000
   0.00000   0.00000
   0.00000   0.00000
   0.00002   0.00000
   0.00025   0.00000
   0.00178  -0.00003
   0.00767  -0.00021
   0.01998  -0.00085
   0.03157  -0.00211
   0.03027  -0.00320
   0.01760  -0.00297
   0.00621  -0.00195
   0.00133  -0.00186
   0.00017  -0.00335
   0.00001  -0.00487
   0.00000  -0.00441
   0.00000  -0.00244
   0.00000  -0.00089
   0.00000  -0.00068
   0.00000  -0.00205
   0.00000  -0.00492
   0.00000  -0.00739
   0.00000  -0.00758
   0.00000  -0.00726
   0.00000  -0.00845
   0.00000  -0.00907
   0.00000  -0.00802
   0.00000  -0.00869
   0.00000  -0.01220
   0.00000  -0.01407
   0.00000  -0.01328
   0.00000  -0.01515
   0.00000  -0.01920
   0.00000  -0.01700
   0.00000  -0.00626
   0.00000   0.00522
   0.00000   0.00844
   0.00000   0.00244
   0.00000  -0.00408
   0.00000  -0.00579
   0.00000  -0.00568
   0.00000  -0.00545
   0.00000  -0.00428
   0.00001  -0.00361
   0.00013  -0.00456
   0.00128  -0.00421
   0.00752  -0.00016
   0.02682   0.00417
   0.05803   0.00357
   0.07613  -0.00408
   0.06059  -0.01863
   0.02924  -0.03410
   0.00856  -0.03807
   0.00152  -0.02874
   0.00016  -0.01742
   0.00001  -0.01108
   0.00000  -0.00866
   0.00000  -0.00677
   0.00000  -0.00393
   0.00000  -0.00146
   0.00000  -0.00032
   0.00000   0.00009
   0.00000   0.00080
   0.00001   0.00282
   0.00016   0.00596
   0.00131   0.00765
   0.00653   0.00595
   0.01977   0.00281
   0.03628   0.00077
   0.04039  -0.00010
   0.02727  -0.00112
   0.01115  -0.00358
   0.00259  -0.00730
  -0.00053  -0.00947
  -0.00291  -0.00767
  -0.00557  -0.00383
  -0.00639  -0.00117
  -0.00444  -0.00022
  -0.00188  -0.00002
  -0.00048   0.00000
  -0.00007  -0.00001
  -0.00001  -0.00014
   0.00000  -0.00101
   0.00000  -0.00434
   0.00000  -0.01134
   0.00009  -0.01795
   0.00106  -0.01723
   0.00750  -0.01004
   0.03213  -0.00355
   0.08349  -0.00076
   0.13157  -0.00010
   0.12575  -0.00001
   0.07290   0.00000
   0.02563  -0.00002
   0.00547  -0.00021
   0.00071  -0.00162
   0.00006  -0.00742
   0.00000  -0.02069
   0.00000  -0.03500
   0.00002  -0.03622
   0.00013  -0.02435
   0.00081  -0.01510
   0.00463  -0.01503
   0.02350  -0.01582
   0.08704  -0.01121
   0.21370  -0.00489
   0.34050  -0.00129
   0.35247  -0.00021
   0.23714  -0.00002
   0.10302   0.00000
   0.02854   0.00000
   0.00498   0.00000
   0.00054   0.00000
   0.00004   0.00000
   0.00000   0.00000
   0.00000   0.00000
   0.00000   0.00000
   0.00000   0.00000
   0.00000   0.00000
   0.00000   0.00000
   0.00000   0.00000
   0.00000   0.00002
   0.00000   0.00025
   0.00000   0.00166
   0.00000   0.00674
   0.00000   0.01655
   0.00000   0.02465
   0.00000   0.02227
   0.00003   0.01220
   0.00053   0.00402
   0.00516   0.00056
   0.03068  -0.00106
   0.11119  -0.00314
   0.24748  -0.00511
   0.34738  -0.00460
   0.32991   0.00072
   0.24124   0.01563
   0.14875   0.04451
   0.07190   0.07249
   0.02384   0.07127
   0.00502   0.04250
   0.00065   0.01553
   0.00005   0.00491
   0.00000   0.00872
   0.00000   0.02691
   0.00000   0.05297
   0.00000   0.06333
   0.00000   0.04592
   0.00001   0.02020
   0.00017   0.00539
   0.00181   0.00087
   0.01158   0.00009
   0.04610   0.00001
   0.11993   0.00000
   0.22353   0.00000
   0.32988   0.00000
   0.38449   0.00000
   0.31971   0.00000
   0.17322   0.00000
   0.05847   0.00000
   0.01208   0.00000
   0.00152   0.00000
   0.00012   0.00000
   0.00001   0.00000
   0.00000   0.00001
   0.00001   0.00021
   0.00012   0.00212
   0.00113   0.01342
   0.00648   0.05308
   0.02249   0.13161
   0.04735   0.20466
   0.06068   0.19922
   0.04855   0.12095
   0.03080   0.04560
   0.03712   0.01062
   0.07220   0.00152
   0.10357   0.00013
   0.09291   0.00001
   0.05100   0.00000
   0.01729   0.00000
   0.00636   0.00000
   0.01935   0.00000
   0.07487   0.00000
   0.17948   0.00000
   0.26106   0.00003
   0.23032   0.00037
   0.12324   0.00326
   0.04000   0.01725
   0.00787   0.05595
   0.00094   0.11463
   0.00007   0.16671
   0.00002   0.22184
   0.00018   0.29838
   0.00121   0.32001
   0.00503   0.22605
   0.01269   0.09878
   0.01941   0.02630
   0.01799   0.00425
   0.01003   0.00045
   0.00294   0.00043
  -0.00091   0.00284
  -0.00302   0.01265
  -0.00358   0.03578
  -0.00252   0.06394
  -0.00107   0.07162
  -0.00028   0.04989
  -0.00004   0.02147
   0.00000   0.00568
   0.00000   0.00096
   0.00000   0.00068
   0.00000   0.00444
   0.00003   0.02037
   0.00041   0.05670
   0.00359   0.09573
   0.01908   0.09804
   0.06233   0.06097
   0.12565   0.02398
   0.15733   0.01378
   0.12321   0.04321
   0.06075   0.12826
   0.01895   0.23463
   0.00375   0.26046
   0.00047   0.17537
   0.00004   0.07162
   0.00000   0.01774
   0.00002   0.00267
   0.00009   0.00025
   0.00032   0.00010
   0.00069   0.00074
   0.00091   0.00361
   0.00073   0.01072
   0.00035   0.01930
   0.00010   0.02083
   0.00002   0.01247
   0.00000   0.00114
   0.00000  -0.00646
   0.00000  -0.00807
   0.00000  -0.00528
   0.00000  -0.00205
   0.00000  -0.00048
   0.00000  -0.00007
   0.00000  -0.00001
   0.00000   0.00000
   0.00002   0.00000
   0.00023   0.00000
   0.00136   0.00000
   0.00484   0.00000
   0.01044   0.00001
   0.01365   0.00013
   0.01083   0.00120
   0.00521   0.00715
   0.00152   0.02740
   0.00027   0.07040
   0.00003   0.12740
   0.00000   0.16519
   0.00000   0.14890
   0.00004   0.08870
   0.00024   0.03353
   0.00084   0.00786
   0.00177   0.00113
   0.00227   0.00008
   0.00181  -0.00013
   0.00121  -0.00058
   0.00197  -0.00143
</data>
</orbital>
<orbital 
 index="                        2" 
 atom_index="                        1" 
 species="Mn" 
 position="   0.000000   0.000000   0.000000" 
 n="                        4" 