<pdos>
<nspin>2</nspin>
<norbitals>  56</norbitals>
<energy_values units="eV">
           -24.99997
           -24.94990
           -24.89983
           -24.84976
           -24.79969
           -24.74962
           -24.69954
           -24.64947
           -24.59940
           -24.54933
           -24.49926
           -24.44919
           -24.39912
           -24.34904
           -24.29897
           -24.24890
           -24.19883
           -24.14876
           -24.09869
           -24.04862
           -23.99854
           -23.94847
           -23.89840
           -23.84833
           -23.79826
           -23.74819
           -23.69811
           -23.64804
           -23.59797
           -23.54790
           -23.49783
           -23.44776
           -23.39769
           -23.34761
           -23.29754
           -23.24747
           -23.19740
           -23.14733
           -23.09726
           -23.04719
           -22.99711
           -22.94704
           -22.89697
           -22.84690
           -22.79683
           -22.74676
           -22.69669
           -22.64661
           -22.59654
           -22.54647
           -22.49640
           -22.44633
           -22.39626
           -22.34618
           -22.29611
           -22.24604
           -22.19597
           -22.14590
           -22.09583
           -22.04576
           -21.99568
           -21.94561
           -21.89554
           -21.84547
           -21.79540
           -21.74533
           -21.69526
           -21.64518
           -21.59511
           -21.54504
           -21.49497
           -21.44490
           -21.39483
           -21.34476
           -21.29468
           -21.24461
           -21.19454
           -21.14447
           -21.09440
           -21.04433
           -20.99426
           -20.94418
           -20.89411
           -20.84404
           -20.79397
           -20.74390
           -20.69383
           -20.64375
           -20.59368
           -20.54361
           -20.49354
           -20.44347
           -20.39340
           -20.34333
           -20.29325
           -20.24318
           -20.19311
           -20.14304
           -20.09297
           -20.04290
           -19.99283
           -19.94275
           -19.89268
           -19.84261
           -19.79254
           -19.74247
           -19.69240
           -19.64233
           -19.59225
           -19.54218
           -19.49211
           -19.44204
           -19.39197
           -19.34190
           -19.29182
           -19.24175
           -19.19168
           -19.14161
           -19.09154
           -19.04147
           -18.99140
           -18.94132
           -18.89125
           -18.84118
           -18.79111
           -18.74104
           -18.69097
           -18.64090
           -18.59082
           -18.54075
           -18.49068
           -18.44061
           -18.39054
           -18.34047
           -18.29040
           -18.24032
           -18.19025
           -18.14018
           -18.09011
           -18.04004
           -17.98997
           -17.93989
           -17.88982
           -17.83975
           -17.78968
           -17.73961
           -17.68954
           -17.63947
           -17.58939
           -17.53932
           -17.48925
           -17.43918
           -17.38911
           -17.33904
           -17.28897
           -17.23889
           -17.18882
           -17.13875
           -17.08868
           -17.03861
           -16.98854
           -16.93847
           -16.88839
           -16.83832
           -16.78825
           -16.73818
           -16.68811
           -16.63804
           -16.58797
           -16.53789
           -16.48782
           -16.43775
           -16.38768
           -16.33761
           -16.28754
           -16.23746
           -16.18739
           -16.13732
           -16.08725
           -16.03718
           -15.98711
           -15.93704
           -15.88696
           -15.83689
           -15.78682
           -15.73675
           -15.68668
           -15.63661
           -15.58654
           -15.53646
           -15.48639
           -15.43632
           -15.38625
           -15.33618
           -15.28611
           -15.23604
           -15.18596
           -15.13589
           -15.08582
           -15.03575
           -14.98568
           -14.93561
           -14.88553
           -14.83546
           -14.78539
           -14.73532
           -14.68525
           -14.63518
           -14.58511
           -14.53503
           -14.48496
           -14.43489
           -14.38482
           -14.33475
           -14.28468
           -14.23461
           -14.18453
           -14.13446
           -14.08439
           -14.03432
           -13.98425
           -13.93418
           -13.88411
           -13.83403
           -13.78396
           -13.73389
           -13.68382
           -13.63375
           -13.58368
           -13.53360
           -13.48353
           -13.43346
           -13.38339
           -13.33332
           -13.28325
           -13.23318
           -13.18310
           -13.13303
           -13.08296
           -13.03289
           -12.98282
           -12.93275
           -12.88268
           -12.83260
           -12.78253
           -12.73246
           -12.68239
           -12.63232
           -12.58225
           -12.53218
           -12.48210
           -12.43203
           -12.38196
           -12.33189
           -12.28182
           -12.23175
           -12.18168
           -12.13160
           -12.08153
           -12.03146
           -11.98139
           -11.93132
           -11.88125
           -11.83117
           -11.78110
           -11.73103
           -11.68096
           -11.63089
           -11.58082
           -11.53075
           -11.48067
           -11.43060
           -11.38053
           -11.33046
           -11.28039
           -11.23032
           -11.18025
           -11.13017
           -11.08010
           -11.03003
           -10.97996
           -10.92989
           -10.87982
           -10.82975
           -10.77967
           -10.72960
           -10.67953
           -10.62946
           -10.57939
           -10.52932
           -10.47924
           -10.42917
           -10.37910
           -10.32903
           -10.27896
           -10.22889
           -10.17882
           -10.12874
           -10.07867
           -10.02860
            -9.97853
            -9.92846
            -9.87839
            -9.82832
            -9.77824
            -9.72817
            -9.67810
            -9.62803
            -9.57796
            -9.52789
            -9.47782
            -9.42774
            -9.37767
            -9.32760
            -9.27753
            -9.22746
            -9.17739
            -9.12731
            -9.07724
            -9.02717
            -8.97710
            -8.92703
            -8.87696
            -8.82689
            -8.77681
            -8.72674
            -8.67667
            -8.62660
            -8.57653
            -8.52646
            -8.47639
            -8.42631
            -8.37624
            -8.32617
            -8.27610
            -8.22603
            -8.17596
            -8.12589
            -8.07581
            -8.02574
            -7.97567
            -7.92560
            -7.87553
            -7.82546
            -7.77539
            -7.72531
            -7.67524
            -7.62517
            -7.57510
            -7.52503
            -7.47496
            -7.42488
            -7.37481
            -7.32474
            -7.27467
            -7.22460
            -7.17453
            -7.12446
            -7.07438
            -7.02431
            -6.97424
            -6.92417
            -6.87410
            -6.82403
            -6.77396
            -6.72388
            -6.67381
            -6.62374
            -6.57367
            -6.52360
            -6.47353
            -6.42346
            -6.37338
            -6.32331
            -6.27324
            -6.22317
            -6.17310
            -6.12303
            -6.07295
            -6.02288
            -5.97281
            -5.92274
            -5.87267
            -5.82260
            -5.77253
            -5.72245
            -5.67238
            -5.62231
            -5.57224
            -5.52217
            -5.47210
            -5.42203
            -5.37195
            -5.32188
            -5.27181
            -5.22174
            -5.17167
            -5.12160
            -5.07153
            -5.02145
            -4.97138
            -4.92131
            -4.87124
            -4.82117
            -4.77110
            -4.72102
            -4.67095
            -4.62088
            -4.57081
            -4.52074
            -4.47067
            -4.42060
            -4.37052
            -4.32045
            -4.27038
            -4.22031
            -4.17024
            -4.12017
            -4.07010
            -4.02002
            -3.96995
            -3.91988
            -3.86981
            -3.81974
            -3.76967
            -3.71960
            -3.66952
            -3.61945
            -3.56938
            -3.51931
            -3.46924
            -3.41917
            -3.36910
            -3.31902
            -3.26895
            -3.21888
            -3.16881
            -3.11874
            -3.06867
            -3.01859
            -2.96852
            -2.91845
            -2.86838
            -2.81831
            -2.76824
            -2.71817
            -2.66809
            -2.61802
            -2.56795
            -2.51788
            -2.46781
            -2.41774
            -2.36767
            -2.31759
            -2.26752
            -2.21745
            -2.16738
            -2.11731
            -2.06724
            -2.01717
            -1.96709
            -1.91702
            -1.86695
            -1.81688
            -1.76681
            -1.71674
            -1.66666
            -1.61659
            -1.56652
            -1.51645
            -1.46638
            -1.41631
            -1.36624
            -1.31616
            -1.26609
            -1.21602
            -1.16595
            -1.11588
            -1.06581
            -1.01574
            -0.96566
            -0.91559
            -0.86552
            -0.81545
            -0.76538
            -0.71531
            -0.66524
            -0.61516
            -0.56509
            -0.51502
            -0.46495
            -0.41488
            -0.36481
            -0.31473
            -0.26466
            -0.21459
            -0.16452
            -0.11445
            -0.06438
            -0.01431
             0.03577
             0.08584
             0.13591
             0.18598
             0.23605
             0.28612
             0.33619
             0.38627
             0.43634
             0.48641
             0.53648
             0.58655
             0.63662
             0.68669
             0.73677
             0.78684
             0.83691
             0.88698
             0.93705
             0.98712
             1.03719
             1.08727
             1.13734
             1.18741
             1.23748
             1.28755
             1.33762
             1.38770
             1.43777
             1.48784
             1.53791
             1.58798
             1.63805
             1.68812
             1.73820
             1.78827
             1.83834
             1.88841
             1.93848
             1.98855
             2.03862
             2.08870
             2.13877
             2.18884
             2.23891
             2.28898
             2.33905
             2.38912
             2.43920
             2.48927
             2.53934
             2.58941
             2.63948
             2.68955
             2.73963
             2.78970
             2.83977
             2.88984
             2.93991
             2.98998
             3.04005
             3.09013
             3.14020
             3.19027
             3.24034
             3.29041
             3.34048
             3.39055
             3.44063
             3.49070
             3.54077
             3.59084
             3.64091
             3.69098
             3.74105
             3.79113
             3.84120
             3.89127
             3.94134
             3.99141
             4.04148
             4.09155
             4.14163
             4.19170
             4.24177
             4.29184
             4.34191
             4.39198
             4.44206
             4.49213
             4.54220
             4.59227
             4.64234
             4.69241
             4.74248
             4.79256
             4.84263
             4.89270
             4.94277
             4.99284
             5.04291
             5.09298
             5.14306
             5.19313
             5.24320
             5.29327
             5.34334
             5.39341
             5.44348
             5.49356
             5.54363
             5.59370
             5.64377
             5.69384
             5.74391
             5.79399
             5.84406
             5.89413
             5.94420
             5.99427
             6.04434
             6.09441
             6.14449
             6.19456
             6.24463
             6.29470
             6.34477
             6.39484
             6.44491
             6.49499
             6.54506
             6.59513
             6.64520
             6.69527
             6.74534
             6.79541
             6.84549
             6.89556
             6.94563
             6.99570
             7.04577
             7.09584
             7.14592
             7.19599
             7.24606
             7.29613
             7.34620
             7.39627
             7.44634
             7.49642
             7.54649
             7.59656
             7.64663
             7.69670
             7.74677
             7.79684
             7.84692
             7.89699
             7.94706
             7.99713
             8.04720
             8.09727
             8.14734
             8.19742
             8.24749
             8.29756
             8.34763
             8.39770
             8.44777
             8.49784
             8.54792
             8.59799
             8.64806
             8.69813
             8.74820
             8.79827
             8.84835
             8.89842
             8.94849
             8.99856
             9.04863
             9.09870
             9.14877
             9.19885
             9.24892
             9.29899
             9.34906
             9.39913
             9.44920
             9.49927
             9.54935
             9.59942
             9.64949
             9.69956
             9.74963
             9.79970
             9.84977
             9.89985
             9.94992
             9.99999
</energy_values>
<orbital 
 index="                        1" 
 atom_index="                        1" 
 species="Mn" 
 position="   0.000000   0.000000   0.000000" 
 n="                        4" 
 l="                        0" 
 m="                        0" 
 z="                        1" 
> 
<data>
   0.00000   0.00000
   0.00000   0.00000
   0.00000   0.00000
   0.00000   0.00000
   0.00000   0.00000
   0.00000   0.00000
   0.00000   0.00000
   0.00000   0.00000
   0.00000   0.00000
   0.00000   0.00000
   0.00000   0.00000
   0.00000   0.00000
   0.00000   0.00000
   0.00000   0.00000
   0.00000   0.00000
   0.00000   0.00000
   0.00000   0.00000
   0.00000   0.00000
   0.00000   0.00000
   0.00000   0.00000
   0.00000   0.00000
   0.00000   0.00000
   0.00000   0.00000
   0.00000   0.00000
   0.00000   0.00000
   0.00000   0.00000
   0.00000   0.00000
   0.00000   0.00000
   0.00000   0.00000
  -0.00005  -0.00004
  -0.00031  -0.00029
  -0.00130  -0.00121
  -0.00340  -0.00323
  -0.00591  -0.00590
  -0.00772  -0.00844
  -0.00904  -0.01097
  -0.01049  -0.01350
  -0.01188  -0.01547
  -0.01336  -0.01731
  -0.01586  -0.02101
  -0.01850  -0.02586
  -0.01812  -0.02690
  -0.01573  -0.02490
  -0.01841  -0.03072
  -0.02765  -0.04639
  -0.03279  -0.05474
  -0.02736  -0.04697
  -0.01951  -0.03837
  -0.01706  -0.04015
  -0.01681  -0.04232
  -0.01130  -0.03215
   0.00121  -0.01165
   0.01353   0.00705
   0.01707   0.01431
   0.01196   0.01096
   0.00525   0.00494
   0.00147   0.00140
   0.00026   0.00025
   0.00003   0.00003
   0.00000   0.00000
   0.00000   0.00000
   0.00000   0.00000
   0.00000   0.00000
   0.00000   0.00000
   0.00000   0.00000
   0.00000   0.00000
   0.00000   0.00000
   0.00000   0.00000
   0.00000   0.00000
   0.00000   0.00000
   0.00000   0.00000
   0.00000   0.00000
   0.00000   0.00000
   0.00000   0.00000
   0.00000   0.00000
   0.00000   0.00000
   0.00000   0.00000
   0.00000   0.00000
   0.00000   0.00000
   0.00000   0.00000
   0.00000   0.00000
   0.00000   0.00000
   0.00000   0.00000
   0.00000   0.00000
   0.00000   0.00000
   0.00000   0.00000
   0.00000   0.00000
   0.00000   0.00000
   0.00000   0.00000
   0.00000   0.00000
   0.00000   0.00000
   0.00000   0.00000
   0.00000   0.00000
   0.00000   0.00000
   0.00000   0.00000
   0.00000   0.00000
   0.00000   0.00000
   0.00000   0.00000
   0.00000   0.00000
   0.00000   0.00000
   0.00000   0.00000
   0.00000   0.00000
   0.00000   0.00000
   0.00000   0.00000
   0.00000   0.00000
   0.00000   0.00000
   0.00000   0.00000
   0.00000   0.00000
   0.00000   0.00000
   0.00000   0.00000
   0.00000   0.00000
   0.00000   0.00000
   0.00000   0.00000
   0.00000   0.00000
   0.00000   0.00000
   0.00000   0.00000
   0.00000   0.00000
   0.00000   0.00000
   0.00000   0.00000
   0.00000   0.00000
   0.00000   0.00000
   0.00000   0.00000
   0.00000   0.00000
   0.00000   0.00000
   0.00000   0.00000
   0.00000   0.00000
   0.00000   0.00000
   0.00000   0.00000
   0.00000   0.00000
   0.00000   0.00000
   0.00000   0.00000
   0.00000   0.00000
   0.00000   0.00000
   0.00000   0.00000
   0.00000   0.00000
   0.00000   0.00000
   0.00000   0.00000
   0.00000   0.00000
   0.00000   0.00000
   0.00000   0.00000
   0.00000   0.00000
   0.00000   0.00000
   0.00000   0.00000
   0.00000   0.00000
   0.00000   0.00000
   0.00000   0.00000
   0.00000   0.00000
   0.00000   0.00000
   0.00000   0.00000
   0.00000   0.00000
   0.00000   0.00000
   0.00000   0.00000
   0.00000   0.00000
   0.00000   0.00000
   0.00000   0.00000
   0.00000   0.00000
   0.00000   0.00000
   0.00000   0.00000
   0.00000   0.00000
   0.00000   0.00000
   0.00000   0.00000
   0.00000   0.00000
   0.00000   0.00000
   0.00000   0.00000
   0.00000   0.00000
   0.00000   0.00000
   0.00000   0.00000
   0.00000   0.00000
   0.00000   0.00000
   0.00000   0.00000
   0.00000   0.00000
   0.00000   0.00000
   0.00000   0.00000
   0.00000   0.00000
   0.00000   0.00000
   0.00000   0.00000
   0.00000   0.00000
   0.00000   0.00000
   0.00000   0.00000
   0.00000   0.00000
   0.00000   0.00000
   0.00000   0.00000
   0.00000   0.00000
   0.00000   0.00000
   0.00000   0.00000
   0.00000   0.00000
   0.00000   0.00000
   0.00000   0.00000
   0.00000   0.00000
   0.00000   0.00000
   0.00000   0.00000
   0.00000   0.00000
   0.00000   0.00000
   0.00000   0.00000
   0.00000   0.00000
   0.00000   0.00000
   0.00000   0.00000
   0.00000   0.00000
   0.00000   0.00000
   0.00000   0.00000
   0.00000   0.00000
   0.00000   0.00000
   0.00000   0.00000
   0.00000   0.00000
   0.00000   0.00000
   0.00000   0.00000
   0.00000   0.00000
   0.00000   0.00000
   0.00000   0.00000
   0.00000   0.00000
   0.00000   0.00000
   0.00000   0.00000
   0.00000   0.00000
   0.00000   0.00000
   0.00000   0.00000
   0.00000   0.00000
   0.00000   0.00000
   0.00000   0.00000
   0.00000   0.00000
   0.00000   0.00000
   0.00000   0.00000
   0.00000   0.00000
   0.00000   0.00000
   0.00000   0.00000
   0.00000   0.00000
   0.00000   0.00000
   0.00000   0.00000
   0.00000   0.00000
   0.00000   0.00000
   0.00000   0.00000
   0.00000   0.00000
   0.00000   0.00000
   0.00000   0.00000
   0.00000   0.00000
   0.00000   0.00000
   0.00000   0.00000
   0.00000   0.00000
   0.00000   0.00000
   0.00000   0.00000
   0.00000   0.00000
   0.00000   0.00000
   0.00000   0.00000
   0.00000   0.00000
   0.00000   0.00000
   0.00000   0.00000
   0.00000   0.00000
   0.00000   0.00000
   0.00000   0.00000
   0.00000   0.00000
   0.00000   0.00000
   0.00000   0.00000
   0.00000   0.00000
   0.00000   0.00000
   0.00000   0.00000
   0.00000   0.00000
   0.00000   0.00000
   0.00000   0.00000
   0.00000   0.00000
   0.00000   0.00000
   0.00000   0.00000
   0.00000   0.00000
   0.00000   0.00000
   0.00000   0.00000
   0.00000   0.00000
   0.00000   0.00000
   0.00000   0.00000
   0.00000   0.00000
   0.00000   0.00000
   0.00000   0.00000
   0.00000   0.00000
   0.00000   0.00000
   0.00000   0.00000
   0.00000   0.00000
   0.00001   0.00001
   0.00018   0.00009
   0.00164   0.00085
   0.00941   0.00480
   0.03302   0.01656
   0.07123   0.03515
   0.09660   0.04672
   0.09236   0.04302
   0.08840   0.03853
   0.10467   0.04379
   0.11081   0.04635
   0.08918   0.03789
   0.06450   0.02761
   0.05354   0.02157
   0.04933   0.01546
   0.04766   0.00578
   0.04979  -0.00392
   0.04979  -0.00841
   0.04865  -0.00854
   0.05597  -0.00875
   0.06403  -0.01129
   0.05644  -0.02045
   0.03212  -0.04182
   0.00490  -0.06772
  -0.01176  -0.08233
  -0.01862  -0.08350
  -0.02025  -0.07639
  -0.01541  -0.06038
  -0.00578  -0.03896
   0.00189  -0.02024
   0.00397  -0.00831
   0.00300  -0.00417
   0.00307  -0.00710
   0.00546  -0.01316
   0.00927  -0.01480
   0.01381  -0.00869
   0.01752  -0.00163
   0.01798  -0.00059
   0.01589  -0.00333
   0.01389  -0.00407
   0.01232  -0.00213
   0.00962  -0.00027
   0.00599   0.00061
   0.00408   0.00126
   0.00512   0.00152
   0.00732   0.00003
   0.00795  -0.00320
   0.00591  -0.00529
   0.00269  -0.00384
   0.00073   0.00003
   0.00087   0.00370
   0.00161   0.00548
   0.00116   0.00509
  -0.00045   0.00386
  -0.00210   0.00373
  -0.00343   0.00520
  -0.00460   0.00708
  -0.00506   0.00866
  -0.00399   0.01049
  -0.00090   0.01188
   0.00290   0.01122
   0.00402   0.00825
   0.00190   0.00411
  -0.00016   0.00102
  -0.00012   0.00044
   0.00130   0.00163
   0.00292   0.00309
   0.00406   0.00390
   0.00406   0.00381
   0.00275   0.00286
   0.00117   0.00167
   0.00034   0.00087
   0.00013   0.00049
   0.00008   0.00028
   0.00004   0.00012
   0.00001   0.00003
   0.00001   0.00000
   0.00003  -0.00001
   0.00006  -0.00001
   0.00007   0.00001
   0.00004   0.00006
  -0.00001   0.00011
  -0.00003   0.00010
  -0.00002   0.00006
  -0.00001   0.00002
   0.00000   0.00000
   0.00000   0.00000
   0.00000   0.00000
   0.00000   0.00000
   0.00000   0.00000
   0.00000   0.00000
   0.00000   0.00000
   0.00000   0.00000
   0.00000   0.00000
  -0.00001   0.00000
  -0.00006   0.00000
  -0.00027   0.00000
  -0.00095   0.00003
  -0.00237   0.00014
  -0.00446   0.00031
  -0.00657   0.00031
  -0.00755  -0.00035
  -0.00613  -0.00198
  -0.00366  -0.00355
  -0.00393  -0.00340
  -0.00703  -0.00189
  -0.00884  -0.00077
  -0.00764  -0.00075
  -0.00597  -0.00137
  -0.00555  -0.00215
  -0.00513  -0.00339
  -0.00383  -0.00540
  -0.00272  -0.00692
  -0.00252  -0.00704
  -0.00237  -0.00713
  -0.00182  -0.00855
  -0.00188  -0.01061
  -0.00292  -0.01218
  -0.00353  -0.01265
  -0.00259  -0.01093
  -0.00103  -0.00708
  -0.00015  -0.00324
   0.00004  -0.00102
   0.00002  -0.00022
   0.00000  -0.00003
   0.00000   0.00000
   0.00000   0.00000
   0.00000   0.00000
   0.00000  -0.00001
  -0.00001  -0.00007
  -0.00006  -0.00058
  -0.00029  -0.00291
  -0.00083  -0.00903
  -0.00127  -0.01814
  -0.00063  -0.02560
   0.00075  -0.02838
   0.00099  -0.02587
  -0.00043  -0.01864
  -0.00219  -0.01081
  -0.00337  -0.00653
  -0.00395  -0.00561
  -0.00410  -0.00544
  -0.00376  -0.00427
  -0.00280  -0.00228
  -0.00158  -0.00067
  -0.00065  -0.00001
  -0.00020   0.00007
  -0.00004   0.00003
  -0.00001   0.00000
   0.00000   0.00000
   0.00000   0.00000
   0.00000   0.00000
   0.00000   0.00000
   0.00000   0.00000
   0.00000   0.00000
   0.00000   0.00000
   0.00000   0.00000
   0.00000   0.00000
   0.00000   0.00000
   0.00000   0.00000
   0.00000   0.00000
   0.00000   0.00000
   0.00000   0.00000
   0.00000   0.00000
   0.00000   0.00000
   0.00000   0.00000
   0.00000   0.00000
   0.00000   0.00000
   0.00000   0.00000
   0.00000   0.00000
   0.00000   0.00000
   0.00000   0.00000
   0.00000   0.00000
   0.00000   0.00000
   0.00000   0.00000
   0.00000   0.00000
   0.00000   0.00000
   0.00001   0.00000
   0.00008   0.00000
   0.00065  -0.00003
   0.00313  -0.00013
   0.00919  -0.00041
   0.01647  -0.00098
   0.01828  -0.00213
   0.01323  -0.00408
   0.00721  -0.00578
   0.00363  -0.00560
   0.00197  -0.00428
   0.00224  -0.00361
   0.00594  -0.00299
   0.01352  -0.00148
   0.01996  -0.00094
   0.01827  -0.00272
   0.00966  -0.00433
   0.00203  -0.00355
   0.00015  -0.00242
   0.00264  -0.00349
   0.00660  -0.00609
   0.01212  -0.00789
   0.02061  -0.00797
   0.02860  -0.00817
   0.02993  -0.00924
   0.02575  -0.00870
   0.02048  -0.00551
   0.01471  -0.00189
   0.01054   0.00092
   0.01089   0.00333
   0.01468   0.00399
   0.01942   0.00060
   0.02381  -0.00497
   0.02617  -0.00751
   0.02563  -0.00537
   0.02378  -0.00215
   0.02182  -0.00140
   0.02066  -0.00328
   0.01990  -0.00534
   0.01680  -0.00540
   0.01248  -0.00415
   0.01069  -0.00390
   0.01087  -0.00570
   0.01040  -0.00929
   0.00877  -0.01279
   0.00694  -0.01331
   0.00578  -0.01030
   0.00529  -0.00678
   0.00505  -0.00611
   0.00557  -0.00919
   0.00676  -0.01332
   0.00652  -0.01327
   0.00413  -0.00828
   0.00162  -0.00316
   0.00039  -0.00073
   0.00006  -0.00010
   0.00001  -0.00001
   0.00000   0.00000
   0.00000   0.00000
   0.00002  -0.00001
   0.00026  -0.00015
   0.00174  -0.00102
   0.00715  -0.00420
   0.01783  -0.01048
   0.02699  -0.01587
   0.02478  -0.01457
   0.01384  -0.00814
   0.00513  -0.00308
   0.00369  -0.00257
   0.00997  -0.00740
   0.02229  -0.01719
   0.03325  -0.02764
   0.03562  -0.03327
   0.02954  -0.03104
   0.01870  -0.02115
   0.00835  -0.00968
   0.00296  -0.00288
   0.00404  -0.00096
   0.01382  -0.00180
   0.03191  -0.00404
   0.04486  -0.00568
   0.03829  -0.00484
   0.02020  -0.00255
   0.00865  -0.00104
   0.00969  -0.00103
   0.01806  -0.00189
   0.02307  -0.00251
   0.01879  -0.00261
   0.01178  -0.00333
   0.00907  -0.00498
   0.00888  -0.00557
   0.01075  -0.00399
   0.02530  -0.00222
   0.06272  -0.00244
   0.10584  -0.00485
   0.11834  -0.00704
   0.10024  -0.00508
   0.08934   0.00185
   0.09291   0.00860
   0.07977   0.00956
   0.04520   0.00582
   0.01650   0.00255
   0.00700   0.00221
   0.01425   0.00410
   0.03915   0.00675
   0.07876   0.00920
   0.11584   0.01114
   0.13692   0.01254
   0.13428   0.01267
   0.09997   0.01104
   0.05583   0.01090
   0.03586   0.01523
   0.03916   0.02006
   0.04571   0.02017
   0.05640   0.01895
   0.07911   0.02179
   0.09047   0.02349
   0.06758   0.01734
   0.03112   0.00797
   0.00900   0.00230
   0.00253   0.00063
   0.00228   0.00054
   0.00269   0.00062
   0.00268   0.00046
   0.00589   0.00021
   0.02135   0.00028
   0.05617   0.00186
   0.10136   0.00776
   0.14531   0.01867
   0.19260   0.02656
   0.22241   0.02253
   0.18827   0.01134
   0.10524   0.00343
   0.03957   0.00143
   0.02067   0.00405
   0.03579   0.01097
   0.05766   0.01821
   0.05822   0.01881
   0.03828   0.01551
   0.02717   0.02484
   0.04337   0.06041
   0.07327   0.10443
   0.08762   0.11293
   0.07749   0.07770
   0.05449   0.03620
   0.02934   0.01257
   0.01092   0.00344
   0.00261   0.00070
   0.00040   0.00011
   0.00020   0.00018
   0.00144   0.00150
   0.00768   0.00796
   0.02584   0.02666
   0.05800   0.05933
   0.09520   0.09589
   0.12225   0.12106
   0.11901   0.11658
   0.08253   0.08136
   0.04902   0.05336
   0.05061   0.06938
   0.07446   0.11835
   0.09051   0.15430
   0.09922   0.15530
   0.11442   0.14393
   0.11820   0.13111
   0.09039   0.10096
   0.05304   0.06495
   0.03805   0.05351
   0.04156   0.06147
   0.03934   0.06001
   0.02694   0.04801
   0.02119   0.05611
   0.03183   0.09999
   0.04877   0.14118
   0.05792   0.12751
   0.05735   0.07135
   0.04720   0.02420
   0.02848   0.00453
   0.01166   0.00036
   0.00489   0.00110
   0.00822   0.00648
   0.02086   0.02235
   0.03900   0.04870
   0.05159   0.07157
   0.05856   0.09002
   0.08025   0.12643
   0.11360   0.16482
   0.11742   0.15253
   0.08257   0.09885
   0.05096   0.06526
   0.04313   0.06477
   0.03840   0.05959
   0.02377   0.03473
   0.00916   0.01113
   0.00217   0.00146
   0.00036   0.00018
   0.00024   0.00173
   0.00063   0.00551
   0.00116   0.01016
   0.00128   0.01137
   0.00079   0.00801
  -0.00015   0.00524
  -0.00178   0.00894
  -0.00366   0.02037
  -0.00187   0.03570
   0.00902   0.05643
   0.02630   0.08793
   0.03575   0.10945
   0.02840   0.09085
   0.01377   0.04747
   0.00469   0.01784
   0.00394   0.01786
   0.00950   0.04936
   0.01711   0.09877
   0.02148   0.12423
   0.02612   0.10577
   0.03789   0.07758
   0.04664   0.06151
   0.03774   0.04330
   0.01892   0.02109
   0.00676   0.00821
   0.00590   0.01022
   0.01321   0.02495
   0.02132   0.04064
   0.02108   0.04010
   0.01307   0.02378
   0.00634   0.00800
   0.00465   0.00054
   0.00464  -0.00132
   0.00343  -0.00094
   0.00161  -0.00035
   0.00043  -0.00071
   0.00030  -0.00167
   0.00167  -0.00201
   0.00447  -0.00147
   0.00651  -0.00079
   0.00567  -0.00037
   0.00334  -0.00014
   0.00194  -0.00018
   0.00150  -0.00087
   0.00105  -0.00238
   0.00049  -0.00372
   0.00016  -0.00347
   0.00011  -0.00199
   0.00044  -0.00087
   0.00146  -0.00073
   0.00319  -0.00103
   0.00448  -0.00087
   0.00401   0.00042
   0.00241   0.00258
</data>
</orbital>
<orbital 
 index="                        2" 
 atom_index="                        1" 
 species="Mn" 
 position="   0.000000   0.000000   0.000000" 
 n="                        4" 