<pdos>
<nspin>2</nspin>
<norbitals>  56</norbitals>
<energy_values units="eV">
           -24.99997
           -24.94990
           -24.89983
           -24.84976
           -24.79969
           -24.74962
           -24.69954
           -24.64947
           -24.59940
           -24.54933
           -24.49926
           -24.44919
           -24.39912
           -24.34904
           -24.29897
           -24.24890
           -24.19883
           -24.14876
           -24.09869
           -24.04862
           -23.99854
           -23.94847
           -23.89840
           -23.84833
           -23.79826
           -23.74819
           -23.69811
           -23.64804
           -23.59797
           -23.54790
           -23.49783
           -23.44776
           -23.39769
           -23.34761
           -23.29754
           -23.24747
           -23.19740
           -23.14733
           -23.09726
           -23.04719
           -22.99711
           -22.94704
           -22.89697
           -22.84690
           -22.79683
           -22.74676
           -22.69669
           -22.64661
           -22.59654
           -22.54647
           -22.49640
           -22.44633
           -22.39626
           -22.34618
           -22.29611
           -22.24604
           -22.19597
           -22.14590
           -22.09583
           -22.04576
           -21.99568
           -21.94561
           -21.89554
           -21.84547
           -21.79540
           -21.74533
           -21.69526
           -21.64518
           -21.59511
           -21.54504
           -21.49497
           -21.44490
           -21.39483
           -21.34476
           -21.29468
           -21.24461
           -21.19454
           -21.14447
           -21.09440
           -21.04433
           -20.99426
           -20.94418
           -20.89411
           -20.84404
           -20.79397
           -20.74390
           -20.69383
           -20.64375
           -20.59368
           -20.54361
           -20.49354
           -20.44347
           -20.39340
           -20.34333
           -20.29325
           -20.24318
           -20.19311
           -20.14304
           -20.09297
           -20.04290
           -19.99283
           -19.94275
           -19.89268
           -19.84261
           -19.79254
           -19.74247
           -19.69240
           -19.64233
           -19.59225
           -19.54218
           -19.49211
           -19.44204
           -19.39197
           -19.34190
           -19.29182
           -19.24175
           -19.19168
           -19.14161
           -19.09154
           -19.04147
           -18.99140
           -18.94132
           -18.89125
           -18.84118
           -18.79111
           -18.74104
           -18.69097
           -18.64090
           -18.59082
           -18.54075
           -18.49068
           -18.44061
           -18.39054
           -18.34047
           -18.29040
           -18.24032
           -18.19025
           -18.14018
           -18.09011
           -18.04004
           -17.98997
           -17.93989
           -17.88982
           -17.83975
           -17.78968
           -17.73961
           -17.68954
           -17.63947
           -17.58939
           -17.53932
           -17.48925
           -17.43918
           -17.38911
           -17.33904
           -17.28897
           -17.23889
           -17.18882
           -17.13875
           -17.08868
           -17.03861
           -16.98854
           -16.93847
           -16.88839
           -16.83832
           -16.78825
           -16.73818
           -16.68811
           -16.63804
           -16.58797
           -16.53789
           -16.48782
           -16.43775
           -16.38768
           -16.33761
           -16.28754
           -16.23746
           -16.18739
           -16.13732
           -16.08725
           -16.03718
           -15.98711
           -15.93704
           -15.88696
           -15.83689
           -15.78682
           -15.73675
           -15.68668
           -15.63661
           -15.58654
           -15.53646
           -15.48639
           -15.43632
           -15.38625
           -15.33618
           -15.28611
           -15.23604
           -15.18596
           -15.13589
           -15.08582
           -15.03575
           -14.98568
           -14.93561
           -14.88553
           -14.83546
           -14.78539
           -14.73532
           -14.68525
           -14.63518
           -14.58511
           -14.53503
           -14.48496
           -14.43489
           -14.38482
           -14.33475
           -14.28468
           -14.23461
           -14.18453
           -14.13446
           -14.08439
           -14.03432
           -13.98425
           -13.93418
           -13.88411
           -13.83403
           -13.78396
           -13.73389
           -13.68382
           -13.63375
           -13.58368
           -13.53360
           -13.48353
           -13.43346
           -13.38339
           -13.33332
           -13.28325
           -13.23318
           -13.18310
           -13.13303
           -13.08296
           -13.03289
           -12.98282
           -12.93275
           -12.88268
           -12.83260
           -12.78253
           -12.73246
           -12.68239
           -12.63232
           -12.58225
           -12.53218
           -12.48210
           -12.43203
           -12.38196
           -12.33189
           -12.28182
           -12.23175
           -12.18168
           -12.13160
           -12.08153
           -12.03146
           -11.98139
           -11.93132
           -11.88125
           -11.83117
           -11.78110
           -11.73103
           -11.68096
           -11.63089
           -11.58082
           -11.53075
           -11.48067
           -11.43060
           -11.38053
           -11.33046
           -11.28039
           -11.23032
           -11.18025
           -11.13017
           -11.08010
           -11.03003
           -10.97996
           -10.92989
           -10.87982
           -10.82975
           -10.77967
           -10.72960
           -10.67953
           -10.62946
           -10.57939
           -10.52932
           -10.47924
           -10.42917
           -10.37910
           -10.32903
           -10.27896
           -10.22889
           -10.17882
           -10.12874
           -10.07867
           -10.02860
            -9.97853
            -9.92846
            -9.87839
            -9.82832
            -9.77824
            -9.72817
            -9.67810
            -9.62803
            -9.57796
            -9.52789
            -9.47782
            -9.42774
            -9.37767
            -9.32760
            -9.27753
            -9.22746
            -9.17739
            -9.12731
            -9.07724
            -9.02717
            -8.97710
            -8.92703
            -8.87696
            -8.82689
            -8.77681
            -8.72674
            -8.67667
            -8.62660
            -8.57653
            -8.52646
            -8.47639
            -8.42631
            -8.37624
            -8.32617
            -8.27610
            -8.22603
            -8.17596
            -8.12589
            -8.07581
            -8.02574
            -7.97567
            -7.92560
            -7.87553
            -7.82546
            -7.77539
            -7.72531
            -7.67524
            -7.62517
            -7.57510
            -7.52503
            -7.47496
            -7.42488
            -7.37481
            -7.32474
            -7.27467
            -7.22460
            -7.17453
            -7.12446
            -7.07438
            -7.02431
            -6.97424
            -6.92417
            -6.87410
            -6.82403
            -6.77396
            -6.72388
            -6.67381
            -6.62374
            -6.57367
            -6.52360
            -6.47353
            -6.42346
            -6.37338
            -6.32331
            -6.27324
            -6.22317
            -6.17310
            -6.12303
            -6.07295
            -6.02288
            -5.97281
            -5.92274
            -5.87267
            -5.82260
            -5.77253
            -5.72245
            -5.67238
            -5.62231
            -5.57224
            -5.52217
            -5.47210
            -5.42203
            -5.37195
            -5.32188
            -5.27181
            -5.22174
            -5.17167
            -5.12160
            -5.07153
            -5.02145
            -4.97138
            -4.92131
            -4.87124
            -4.82117
            -4.77110
            -4.72102
            -4.67095
            -4.62088
            -4.57081
            -4.52074
            -4.47067
            -4.42060
            -4.37052
            -4.32045
            -4.27038
            -4.22031
            -4.17024
            -4.12017
            -4.07010
            -4.02002
            -3.96995
            -3.91988
            -3.86981
            -3.81974
            -3.76967
            -3.71960
            -3.66952
            -3.61945
            -3.56938
            -3.51931
            -3.46924
            -3.41917
            -3.36910
            -3.31902
            -3.26895
            -3.21888
            -3.16881
            -3.11874
            -3.06867
            -3.01859
            -2.96852
            -2.91845
            -2.86838
            -2.81831
            -2.76824
            -2.71817
            -2.66809
            -2.61802
            -2.56795
            -2.51788
            -2.46781
            -2.41774
            -2.36767
            -2.31759
            -2.26752
            -2.21745
            -2.16738
            -2.11731
            -2.06724
            -2.01717
            -1.96709
            -1.91702
            -1.86695
            -1.81688
            -1.76681
            -1.71674
            -1.66666
            -1.61659
            -1.56652
            -1.51645
            -1.46638
            -1.41631
            -1.36624
            -1.31616
            -1.26609
            -1.21602
            -1.16595
            -1.11588
            -1.06581
            -1.01574
            -0.96566
            -0.91559
            -0.86552
            -0.81545
            -0.76538
            -0.71531
            -0.66524
            -0.61516
            -0.56509
            -0.51502
            -0.46495
            -0.41488
            -0.36481
            -0.31473
            -0.26466
            -0.21459
            -0.16452
            -0.11445
            -0.06438
            -0.01431
             0.03577
             0.08584
             0.13591
             0.18598
             0.23605
             0.28612
             0.33619
             0.38627
             0.43634
             0.48641
             0.53648
             0.58655
             0.63662
             0.68669
             0.73677
             0.78684
             0.83691
             0.88698
             0.93705
             0.98712
             1.03719
             1.08727
             1.13734
             1.18741
             1.23748
             1.28755
             1.33762
             1.38770
             1.43777
             1.48784
             1.53791
             1.58798
             1.63805
             1.68812
             1.73820
             1.78827
             1.83834
             1.88841
             1.93848
             1.98855
             2.03862
             2.08870
             2.13877
             2.18884
             2.23891
             2.28898
             2.33905
             2.38912
             2.43920
             2.48927
             2.53934
             2.58941
             2.63948
             2.68955
             2.73963
             2.78970
             2.83977
             2.88984
             2.93991
             2.98998
             3.04005
             3.09013
             3.14020
             3.19027
             3.24034
             3.29041
             3.34048
             3.39055
             3.44063
             3.49070
             3.54077
             3.59084
             3.64091
             3.69098
             3.74105
             3.79113
             3.84120
             3.89127
             3.94134
             3.99141
             4.04148
             4.09155
             4.14163
             4.19170
             4.24177
             4.29184
             4.34191
             4.39198
             4.44206
             4.49213
             4.54220
             4.59227
             4.64234
             4.69241
             4.74248
             4.79256
             4.84263
             4.89270
             4.94277
             4.99284
             5.04291
             5.09298
             5.14306
             5.19313
             5.24320
             5.29327
             5.34334
             5.39341
             5.44348
             5.49356
             5.54363
             5.59370
             5.64377
             5.69384
             5.74391
             5.79399
             5.84406
             5.89413
             5.94420
             5.99427
             6.04434
             6.09441
             6.14449
             6.19456
             6.24463
             6.29470
             6.34477
             6.39484
             6.44491
             6.49499
             6.54506
             6.59513
             6.64520
             6.69527
             6.74534
             6.79541
             6.84549
             6.89556
             6.94563
             6.99570
             7.04577
             7.09584
             7.14592
             7.19599
             7.24606
             7.29613
             7.34620
             7.39627
             7.44634
             7.49642
             7.54649
             7.59656
             7.64663
             7.69670
             7.74677
             7.79684
             7.84692
             7.89699
             7.94706
             7.99713
             8.04720
             8.09727
             8.14734
             8.19742
             8.24749
             8.29756
             8.34763
             8.39770
             8.44777
             8.49784
             8.54792
             8.59799
             8.64806
             8.69813
             8.74820
             8.79827
             8.84835
             8.89842
             8.94849
             8.99856
             9.04863
             9.09870
             9.14877
             9.19885
             9.24892
             9.29899
             9.34906
             9.39913
             9.44920
             9.49927
             9.54935
             9.59942
             9.64949
             9.69956
             9.74963
             9.79970
             9.84977
             9.89985
             9.94992
             9.99999
</energy_values>
<orbital 
 index="                        1" 
 atom_index="                        1" 
 species="Mn" 
 position="   0.000000   0.000000   0.000000" 
 n="                        4" 
 l="                        0" 
 m="                        0" 
 z="                        1" 
> 
<data>
   0.00000   0.00000
   0.00000   0.00000
   0.00000   0.00000
   0.00000   0.00000
   0.00000   0.00000
   0.00000   0.00000
   0.00000   0.00000
   0.00000   0.00000
   0.00000   0.00000
   0.00000   0.00000
   0.00000   0.00000
   0.00000   0.00000
   0.00000   0.00000
   0.00000   0.00000
   0.00000   0.00000
   0.00000   0.00000
   0.00000   0.00000
   0.00000   0.00000
   0.00000   0.00000
   0.00000   0.00000
   0.00000   0.00000
   0.00000   0.00000
   0.00000   0.00000
   0.00000   0.00000
   0.00000   0.00000
   0.00000   0.00000
   0.00000   0.00000
   0.00000   0.00000
   0.00000   0.00000
   0.00000   0.00000
   0.00001  -0.00003
   0.00008  -0.00030
   0.00051  -0.00193
   0.00197  -0.00743
   0.00459  -0.01737
   0.00649  -0.02463
   0.00544  -0.02140
   0.00178  -0.01286
  -0.00423  -0.01179
  -0.01400  -0.02351
  -0.02364  -0.03823
  -0.02399  -0.03879
  -0.01520  -0.02504
  -0.00808  -0.01562
  -0.00947  -0.02330
  -0.01647  -0.04132
  -0.02231  -0.05032
  -0.02697  -0.04483
  -0.03364  -0.03817
  -0.03497  -0.03392
  -0.02564  -0.02638
  -0.01524  -0.01703
  -0.00926  -0.00994
  -0.00195  -0.00795
   0.00929  -0.01014
   0.01891  -0.01165
   0.01985  -0.00998
   0.01279  -0.00615
   0.00517  -0.00256
   0.00131  -0.00068
   0.00021  -0.00011
   0.00002  -0.00001
   0.00000   0.00000
   0.00000   0.00000
   0.00000   0.00000
   0.00000   0.00000
   0.00000   0.00000
   0.00000   0.00000
   0.00000   0.00000
   0.00000   0.00000
   0.00000   0.00000
   0.00000   0.00000
   0.00000   0.00000
   0.00000   0.00000
   0.00000   0.00000
   0.00000   0.00000
   0.00000   0.00000
   0.00000   0.00000
   0.00000   0.00000
   0.00000   0.00000
   0.00000   0.00000
   0.00000   0.00000
   0.00000   0.00000
   0.00000   0.00000
   0.00000   0.00000
   0.00000   0.00000
   0.00000   0.00000
   0.00000   0.00000
   0.00000   0.00000
   0.00000   0.00000
   0.00000   0.00000
   0.00000   0.00000
   0.00000   0.00000
   0.00000   0.00000
   0.00000   0.00000
   0.00000   0.00000
   0.00000   0.00000
   0.00000   0.00000
   0.00000   0.00000
   0.00000   0.00000
   0.00000   0.00000
   0.00000   0.00000
   0.00000   0.00000
   0.00000   0.00000
   0.00000   0.00000
   0.00000   0.00000
   0.00000   0.00000
   0.00000   0.00000
   0.00000   0.00000
   0.00000   0.00000
   0.00000   0.00000
   0.00000   0.00000
   0.00000   0.00000
   0.00000   0.00000
   0.00000   0.00000
   0.00000   0.00000
   0.00000   0.00000
   0.00000   0.00000
   0.00000   0.00000
   0.00000   0.00000
   0.00000   0.00000
   0.00000   0.00000
   0.00000   0.00000
   0.00000   0.00000
   0.00000   0.00000
   0.00000   0.00000
   0.00000   0.00000
   0.00000   0.00000
   0.00000   0.00000
   0.00000   0.00000
   0.00000   0.00000
   0.00000   0.00000
   0.00000   0.00000
   0.00000   0.00000
   0.00000   0.00000
   0.00000   0.00000
   0.00000   0.00000
   0.00000   0.00000
   0.00000   0.00000
   0.00000   0.00000
   0.00000   0.00000
   0.00000   0.00000
   0.00000   0.00000
   0.00000   0.00000
   0.00000   0.00000
   0.00000   0.00000
   0.00000   0.00000
   0.00000   0.00000
   0.00000   0.00000
   0.00000   0.00000
   0.00000   0.00000
   0.00000   0.00000
   0.00000   0.00000
   0.00000   0.00000
   0.00000   0.00000
   0.00000   0.00000
   0.00000   0.00000
   0.00000   0.00000
   0.00000   0.00000
   0.00000   0.00000
   0.00000   0.00000
   0.00000   0.00000
   0.00000   0.00000
   0.00000   0.00000
   0.00000   0.00000
   0.00000   0.00000
   0.00000   0.00000
   0.00000   0.00000
   0.00000   0.00000
   0.00000   0.00000
   0.00000   0.00000
   0.00000   0.00000
   0.00000   0.00000
   0.00000   0.00000
   0.00000   0.00000
   0.00000   0.00000
   0.00000   0.00000
   0.00000   0.00000
   0.00000   0.00000
   0.00000   0.00000
   0.00000   0.00000
   0.00000   0.00000
   0.00000   0.00000
   0.00000   0.00000
   0.00000   0.00000
   0.00000   0.00000
   0.00000   0.00000
   0.00000   0.00000
   0.00000   0.00000
   0.00000   0.00000
   0.00000   0.00000
   0.00000   0.00000
   0.00000   0.00000
   0.00000   0.00000
   0.00000   0.00000
   0.00000   0.00000
   0.00000   0.00000
   0.00000   0.00000
   0.00000   0.00000
   0.00000   0.00000
   0.00000   0.00000
   0.00000   0.00000
   0.00000   0.00000
   0.00000   0.00000
   0.00000   0.00000
   0.00000   0.00000
   0.00000   0.00000
   0.00000   0.00000
   0.00000   0.00000
   0.00000   0.00000
   0.00000   0.00000
   0.00000   0.00000
   0.00000   0.00000
   0.00000   0.00000
   0.00000   0.00000
   0.00000   0.00000
   0.00000   0.00000
   0.00000   0.00000
   0.00000   0.00000
   0.00000   0.00000
   0.00000   0.00000
   0.00000   0.00000
   0.00000   0.00000
   0.00000   0.00000
   0.00000   0.00000
   0.00000   0.00000
   0.00000   0.00000
   0.00000   0.00000
   0.00000   0.00000
   0.00000   0.00000
   0.00000   0.00000
   0.00000   0.00000
   0.00000   0.00000
   0.00000   0.00000
   0.00000   0.00000
   0.00000   0.00000
   0.00000   0.00000
   0.00000   0.00000
   0.00000   0.00000
   0.00000   0.00000
   0.00000   0.00000
   0.00000   0.00000
   0.00000   0.00000
   0.00000   0.00000
   0.00000   0.00000
   0.00000   0.00000
   0.00000   0.00000
   0.00000   0.00000
   0.00000   0.00000
   0.00000   0.00000
   0.00000   0.00000
   0.00000   0.00000
   0.00000   0.00000
   0.00000   0.00000
   0.00000   0.00000
   0.00000   0.00000
   0.00000   0.00000
   0.00000   0.00000
   0.00000   0.00000
   0.00000   0.00000
   0.00000   0.00000
   0.00000   0.00000
   0.00000   0.00000
   0.00000   0.00000
   0.00000   0.00000
   0.00000   0.00000
   0.00000   0.00000
   0.00000   0.00000
   0.00000   0.00000
   0.00000   0.00000
   0.00000   0.00000
   0.00000   0.00000
   0.00000   0.00000
   0.00000   0.00000
   0.00000   0.00000
   0.00000   0.00000
   0.00004   0.00000
   0.00061   0.00003
   0.00563   0.00031
   0.03156   0.00173
   0.10730   0.00589
   0.22122   0.01215
   0.27665   0.01521
   0.20984   0.01162
   0.09665   0.00640
   0.02781   0.00975
   0.00856   0.03815
   0.01164   0.10537
   0.01939   0.17756
   0.02265   0.18139
   0.02333   0.11192
   0.02701   0.04069
   0.02666   0.00554
   0.01145  -0.01197
  -0.01839  -0.03756
  -0.05249  -0.07265
  -0.07119  -0.09101
  -0.06056  -0.07369
  -0.03310  -0.03844
  -0.01152  -0.01283
  -0.00239  -0.00269
   0.00080  -0.00029
   0.00565  -0.00019
   0.01699  -0.00261
   0.03059  -0.00992
   0.03303  -0.01857
   0.02130  -0.01923
   0.00815  -0.01149
   0.00190  -0.00412
   0.00091  -0.00163
   0.00383  -0.00459
   0.01312  -0.01541
   0.02743  -0.03202
   0.03515  -0.04003
   0.02861  -0.02915
   0.01709  -0.01013
   0.01032   0.00199
   0.00680   0.00444
   0.00369   0.00125
   0.00182  -0.00456
   0.00162  -0.01057
   0.00164  -0.01225
   0.00086  -0.00798
   0.00024  -0.00235
   0.00158   0.00061
   0.00478   0.00110
   0.00677   0.00065
   0.00545  -0.00049
   0.00284  -0.00378
   0.00154  -0.01052
   0.00153  -0.01739
   0.00163  -0.01789
   0.00136  -0.01203
   0.00107  -0.00604
   0.00125  -0.00338
   0.00193  -0.00322
   0.00263  -0.00425
   0.00340  -0.00750
   0.00498  -0.01359
   0.00663  -0.01741
   0.00628  -0.01374
   0.00395  -0.00604
   0.00163  -0.00030
   0.00045   0.00226
   0.00010   0.00253
   0.00003   0.00155
   0.00001   0.00057
   0.00000   0.00013
   0.00000   0.00002
   0.00000   0.00000
   0.00000   0.00000
   0.00000   0.00000
   0.00000   0.00000
   0.00000   0.00000
   0.00000   0.00000
   0.00000   0.00000
   0.00000   0.00000
   0.00000   0.00000
   0.00000   0.00000
   0.00000   0.00000
   0.00000   0.00000
   0.00000   0.00000
   0.00000   0.00000
   0.00000   0.00000
   0.00000   0.00000
   0.00000   0.00000
   0.00000   0.00000
   0.00000   0.00000
   0.00000   0.00000
   0.00000   0.00000
   0.00000   0.00000
   0.00000   0.00000
   0.00000   0.00000
   0.00000   0.00000
   0.00000   0.00000
   0.00000   0.00000
   0.00000   0.00000
   0.00000   0.00000
   0.00000  -0.00004
   0.00004  -0.00034
   0.00014  -0.00201
  -0.00006  -0.00717
  -0.00228  -0.01570
  -0.00836  -0.02133
  -0.01483  -0.01816
  -0.01439  -0.00919
  -0.00625  -0.00158
   0.00385  -0.00137
   0.01078  -0.01153
   0.01148  -0.02469
   0.00726  -0.02691
   0.00301  -0.01694
   0.00164  -0.00625
   0.00332  -0.00084
   0.00703   0.00144
   0.01032   0.00243
   0.01224   0.00149
   0.01523  -0.00134
   0.01833  -0.00396
   0.01663  -0.00463
   0.01097  -0.00400
   0.00615  -0.00317
   0.00321  -0.00209
   0.00134  -0.00095
   0.00037  -0.00027
   0.00007  -0.00005
   0.00001  -0.00001
   0.00000   0.00000
   0.00000   0.00000
   0.00000   0.00000
   0.00000   0.00000
   0.00000   0.00000
   0.00000   0.00000
   0.00003  -0.00001
   0.00021  -0.00008
   0.00089  -0.00033
   0.00218  -0.00085
   0.00276  -0.00132
   0.00088  -0.00122
  -0.00206  -0.00076
  -0.00258  -0.00074
  -0.00058  -0.00189
   0.00159  -0.00476
   0.00288  -0.00804
   0.00292  -0.00845
   0.00184  -0.00542
   0.00071  -0.00211
   0.00015  -0.00052
  -0.00017  -0.00025
  -0.00099  -0.00093
  -0.00308  -0.00285
  -0.00576  -0.00535
  -0.00655  -0.00607
  -0.00452  -0.00418
  -0.00189  -0.00175
  -0.00048  -0.00044
  -0.00007  -0.00007
  -0.00001  -0.00001
   0.00000   0.00000
   0.00000   0.00000
   0.00000   0.00000
   0.00000   0.00000
   0.00000   0.00000
   0.00000   0.00000
   0.00000   0.00000
   0.00000   0.00000
   0.00000   0.00000
   0.00000   0.00000
   0.00000   0.00000
   0.00000   0.00000
   0.00000   0.00000
   0.00000   0.00000
   0.00000   0.00000
   0.00000   0.00000
   0.00001   0.00000
   0.00016  -0.00005
   0.00148  -0.00047
   0.00822  -0.00262
   0.02769  -0.00883
   0.05658  -0.01805
   0.07012  -0.02237
   0.05270  -0.01682
   0.02403  -0.00767
   0.00664  -0.00212
   0.00111  -0.00036
   0.00011  -0.00004
   0.00001   0.00000
   0.00002   0.00003
   0.00011   0.00019
   0.00051   0.00067
   0.00162   0.00092
   0.00427  -0.00264
   0.00940  -0.01541
   0.01488  -0.03407
   0.01475  -0.04138
   0.00912  -0.02825
   0.00562  -0.00874
   0.00674   0.00314
   0.00893   0.00726
   0.01011   0.00453
   0.01165  -0.00623
   0.01418  -0.01954
   0.01426  -0.02492
   0.01053  -0.02062
   0.00641  -0.01409
   0.00396  -0.00907
   0.00300  -0.00527
   0.00427  -0.00349
   0.00824  -0.00420
   0.01190  -0.00575
   0.01271  -0.00755
   0.01581  -0.01414
   0.02658  -0.02860
   0.03622  -0.04021
   0.03226  -0.03514
   0.02200  -0.01951
   0.02529  -0.00989
   0.04720  -0.01067
   0.06572  -0.01411
   0.05644  -0.01248
   0.02885  -0.00678
   0.00834  -0.00227
   0.00106  -0.00066
  -0.00036  -0.00123
  -0.00121  -0.00425
  -0.00259  -0.00935
  -0.00344  -0.01248
  -0.00279  -0.01010
  -0.00137  -0.00496
  -0.00041  -0.00148
  -0.00007  -0.00027
  -0.00001  -0.00003
   0.00000   0.00000
   0.00000   0.00000
   0.00000   0.00000
   0.00000   0.00000
   0.00000   0.00000
   0.00000   0.00000
   0.00000   0.00000
   0.00000   0.00000
   0.00000   0.00000
   0.00000   0.00000
   0.00001   0.00000
   0.00011  -0.00002
   0.00125  -0.00017
   0.00842  -0.00113
   0.03450  -0.00464
   0.08569  -0.01152
   0.12918  -0.01741
   0.11895  -0.01645
   0.07220  -0.01283
   0.05054  -0.01985
   0.07706  -0.04354
   0.11241  -0.06626
   0.10460  -0.06188
   0.05928  -0.03509
   0.02038  -0.01207
   0.00426  -0.00252
   0.00069  -0.00032
   0.00168   0.00001
   0.01073   0.00020
   0.04267   0.00079
   0.10299   0.00190
   0.15077   0.00278
   0.13386   0.00247
   0.07209   0.00133
   0.02355   0.00043
   0.00466   0.00009
   0.00056   0.00001
   0.00005   0.00000
   0.00014   0.00005
   0.00130   0.00050
   0.00762   0.00292
   0.02710   0.01040
   0.05843   0.02242
   0.07640   0.02932
   0.06059   0.02326
   0.02915   0.01119
   0.00852   0.00327
   0.00171   0.00060
   0.00246   0.00027
   0.01550   0.00141
   0.06321   0.00575
   0.15642   0.01424
   0.23478   0.02137
   0.21374   0.01947
   0.11804   0.01091
   0.03969   0.00489
   0.00880   0.00689
   0.00325   0.01796
   0.00431   0.03174
   0.00641   0.03606
   0.01266   0.03327
   0.02827   0.04025
   0.04544   0.05477
   0.04580   0.05391
   0.02951   0.03586
   0.01655   0.02443
   0.01603   0.02992
   0.01853   0.03653
   0.01470   0.02915
   0.00717   0.01423
   0.00213   0.00422
   0.00038   0.00076
   0.00005   0.00009
   0.00016   0.00009
   0.00164   0.00094
   0.01071   0.00615
   0.04243   0.02439
   0.10196   0.05861
   0.14861   0.08544
   0.13137   0.07554
   0.07044   0.04051
   0.02294   0.01322
   0.00493   0.00317
   0.00363   0.00461
   0.01411   0.01958
   0.03883   0.05397
   0.06502   0.09033
   0.06649   0.09187
   0.04632   0.05843
   0.05443   0.03464
   0.16774   0.06150
   0.41756   0.14468
   0.64223   0.22185
   0.59973   0.20718
   0.33970   0.11738
   0.11671   0.04034
   0.02432   0.00841
   0.00307   0.00106
   0.00024   0.00008
   0.00001   0.00000
   0.00000   0.00000
   0.00000   0.00000
   0.00000   0.00000
   0.00000   0.00000
   0.00000   0.00000
   0.00000   0.00000
   0.00000   0.00000
   0.00001   0.00003
   0.00016   0.00038
   0.00119   0.00289
   0.00553   0.01343
   0.01558   0.03785
   0.02668   0.06477
   0.02810   0.06786
   0.01969   0.04601
   0.01305   0.02670
   0.01219   0.02133
   0.01091   0.01820
   0.00653   0.01080
   0.00241   0.00397
   0.00054   0.00089
   0.00007   0.00012
   0.00001   0.00002
   0.00007   0.00030
   0.00089   0.00385
   0.00691   0.02995
   0.03264   0.14141
   0.09369   0.40614
   0.16398   0.71303
   0.17597   0.77457
   0.11691   0.53603
   0.04863   0.25084
   0.01264   0.08636
   0.00192   0.02293
   0.00011   0.00450
  -0.00001   0.00060
   0.00000   0.00005
   0.00000   0.00000
   0.00000   0.00000
   0.00000   0.00000
   0.00000   0.00000
   0.00000   0.00001
   0.00001   0.00011
   0.00013   0.00108
   0.00080   0.00666
   0.00301   0.02491
   0.00683   0.05657
   0.00940   0.07790
   0.00785   0.06507
   0.00398   0.03296
   0.00122   0.01013
   0.00023   0.00189
   0.00003   0.00021
   0.00000   0.00001
   0.00000   0.00000
   0.00000   0.00000
   0.00000   0.00000
   0.00000   0.00000
   0.00000   0.00000
   0.00000   0.00000
   0.00000   0.00000
   0.00000   0.00000
   0.00000   0.00000
   0.00000   0.00000
   0.00000   0.00000
   0.00000   0.00000
   0.00000   0.00000
   0.00000   0.00000
   0.00001  -0.00003
   0.00007  -0.00027
   0.00045  -0.00170
   0.00176  -0.00659
   0.00414  -0.01548
   0.00590  -0.02208
   0.00510  -0.01910
   0.00268  -0.01002
   0.00085  -0.00319
   0.00016  -0.00062
   0.00002  -0.00007
   0.00000  -0.00001
   0.00000   0.00000
   0.00000   0.00000
   0.00000   0.00000
   0.00000   0.00000
   0.00000   0.00000
   0.00000   0.00000
   0.00000   0.00000
   0.00000   0.00000
</data>
</orbital>
<orbital 
 index="                        2" 
 atom_index="                        1" 
 species="Mn" 
 position="   0.000000   0.000000   0.000000" 
 n="                        4" 