Siesta Version:                                        siesta-2.6.21
Architecture  : intel-nolibs
Compiler flags: ifort  -tpp5 -O2 -w -mp -Vaxlib  -O
SERIAL version

* Running in serial mode
>> Start of run:  18-MAY-2009  13:26:04

                           ***********************       
                           *  WELCOME TO SIESTA  *       
                           ***********************       

reinit: Reading from standard input
************************** Dump of input data file ****************************
#
# General system descriptors
#
SystemName	BaTiO3 bulk
#               tetragonal structure.
#               300 Ry
#               2 x 2 x 2; 0.5 0.5 0.5 MP mesh
SystemLabel	 BaTiO3
NumberOfAtoms    5
NumberOfSpecies	 3
%block ChemicalSpeciesLabel
      1      56     Ba
      2      22     Ti
      3       8     O
%endblock ChemicalSpeciesLabel
# Lattice, coordinates, k-sampling
#
LatticeConstant      3.947359 Ang
%block LatticeVectors
  1.00  0.00  0.00
  0.00  1.00  0.00
  0.00  0.00  1.0000038
%endblock LatticeVectors
AtomicCoordinatesFormat	  Fractional
%block AtomicCoordinatesAndAtomicSpecies
   0.0   0.0   0.00000920   1
   0.5   0.5   0.50000430   2
   0.5   0.5   0.00006687   3
   0.5   0.0   0.50002742   3
   0.0   0.5   0.50002742   3
%endblock AtomicCoordinatesAndAtomicSpecies
%block kgrid_Monkhorst_Pack
   2   0   0    0.5
   0   2   0    0.5
   0   0   2    0.5
%endblock kgrid_Monkhorst_Pack
#
# DFT, Grid, SCF
#
XC.Functional          LDA         # LDA = Local Density Approximation
XC.Authors             CA          # CA = Ceperley-Alder
SpinPolarized          .false.     # Are we going to perfom a spin polarized cal
MeshCutoff             300 Ry      # Fineness of the integrations in real space
DM.MixingWeight        0.400       # New DM amount for next SCF cycle
DM.Tolerance           1.d-4       # Tolerance in maximum difference
                                   # between input and output DM
DM.NumberPulay         3
MaxSCFIterations       100
#
# Eigenvalue problem: order-N or diagonalization
#
SolutionMethod         diagon
ElectronicTemperature  100 K
#
# Output options
#
LongOutput              .false.
WriteCoorStep           .true.
WriteForces             .true.
WriteMullikenPop        1            # Write Mulliken Population Analysis
                                     #   - 0 = None
                                     #   - 1 = atomic and orbital charges
                                     #   - 2 = 1 + atomic overlap population
                                     #   - 3 = 2 + orbital overlap population
WriteCoorXmol           .false.
WriteMDCoorXmol         .false.
WriteMDhistory          .false.
WriteEigenvalues        .false.
#
# Options for saving/reading information
#
DM.UseSaveDM            .false.      # Use DM Continuation files
MD.UseSaveXV            .false.      # Use stored positions and velocities
MD.UseSaveCG            .false.      # Use CG history information
#
# Basis definition
#
%block PS.lmax
   Ba    3
   Ti    3
    O    3
%endblock PS.lmax
%block PAO.Basis
Ba    5      0.70
 n=5    0    1   E     98.95      5.90
   6.39899920099572
   1.00000000000000
 n=6    0    2   E     97.95      6.50
   6.99956358549850        5.99949655050583
   1.00000000000000        1.00000000000000
 n=5    1    1   E     96.95      6.09
   6.59922580635556
   1.00000000000000
 n=5    2    1   E     95.95      6.60
   7.09995685034315
   1.00000000000000
 n=6    1    1   E     94.96      6.60
   7.09996103032325
   1.00000000000000
Ti    5      1.91
 n=3    0    1   E     93.95      5.20
   5.69946662616249
   1.00000000000000
 n=3    1    1   E     95.47      5.20
   5.69941339465994
   1.00000000000000
 n=4    0    2   E     96.47      5.60
   6.09996398975307        5.09944363262274
   1.00000000000000        1.00000000000000
 n=3    2    2   E     46.05      4.95
   5.94327035784617        4.70009988294302
   1.00000000000000        1.00000000000000
 n=4    1    1   E      0.50      1.77
   3.05365979938936
   1.00000000000000
O     3     -0.28
 n=2    0    2   E     40.58      3.95
   4.95272270428712        3.60331408800389
   1.00000000000000        1.00000000000000
 n=2    1    2   E     36.78      4.35
   4.99990228025066        3.89745395068600
   1.00000000000000        1.00000000000000
 n=3    2    1   E     21.69      0.93
   2.73276990670788
   1.00000000000000
%EndBlock PAO.Basis
************************** End of input data file *****************************

reinit: -----------------------------------------------------------------------
reinit: System Name: BaTiO3 bulk
reinit: -----------------------------------------------------------------------
reinit: System Label: BaTiO3                                                      
reinit: -----------------------------------------------------------------------

initatom: Reading input for the pseudopotentials and atomic orbitals ----------
 Species number:            1  Label: Ba Atomic number:          56
 Species number:            2  Label: Ti Atomic number:          22
 Species number:            3  Label: O Atomic number:           8
Ground state valence configuration:   6s02
Reading pseudopotential information in formatted form from Ba.psf

Pseudopotential generated from a relativistic atomic calculation
There are spin-orbit pseudopotentials available
Spin-orbit interaction is not included in this calculation

Valence configuration for pseudopotential generation:
5s( 2.00) rc: 1.73
5p( 6.00) rc: 1.99
5d( 0.00) rc: 2.49
4f( 0.00) rc: 2.49
Ground state valence configuration:   4s02  3d02
Reading pseudopotential information in formatted form from Ti.psf

Pseudopotential generated from a relativistic atomic calculation
There are spin-orbit pseudopotentials available
Spin-orbit interaction is not included in this calculation

Valence configuration for pseudopotential generation:
3s( 2.00) rc: 1.30
3p( 6.00) rc: 1.30
3d( 2.00) rc: 1.30
4f( 0.00) rc: 1.98
Ground state valence configuration:   2s02  2p04
Reading pseudopotential information in formatted form from O.psf

Valence configuration for pseudopotential generation:
2s( 2.00) rc: 1.14
2p( 4.00) rc: 1.14
3d( 0.00) rc: 1.14
4f( 0.00) rc: 1.48
Semicore shell(s) with  8 electrons included in the valence for
Ba
Semicore shell(s) with  8 electrons included in the valence for
Ti
relmxkb: Read Max KB Ang. Momentum=    3 for species Ba
relmxkb: Read Max KB Ang. Momentum=    3 for species Ti
relmxkb: Read Max KB Ang. Momentum=    3 for species O

<basis_specs>
===============================================================================
Ba                   Z=  56    Mass=  137.33        Charge= 0.70000    
Lmxo=2 Lmxkb=3     BasisType=split      Semic=T
L=0  Nsemic=1  Cnfigmx=6
          n=1  nzeta=1  polorb=0
            splnorm:   0.15000    
               vcte:    98.950    
               rinn:    5.9000    
                rcs:    6.3990    
            lambdas:    1.0000    
          n=2  nzeta=2  polorb=0
            splnorm:   0.15000    
               vcte:    97.950    
               rinn:    6.5000    
                rcs:    6.9996      5.9995    
            lambdas:    1.0000      1.0000    
L=1  Nsemic=1  Cnfigmx=6
          n=1  nzeta=1  polorb=0
            splnorm:   0.15000    
               vcte:    96.950    
               rinn:    6.0900    
                rcs:    6.5992    
            lambdas:    1.0000    
          n=2  nzeta=1  polorb=0
            splnorm:   0.15000    
               vcte:    94.960    
               rinn:    6.6000    
                rcs:    7.1000    
            lambdas:    1.0000    
L=2  Nsemic=0  Cnfigmx=5
          n=1  nzeta=1  polorb=0
            splnorm:   0.15000    
               vcte:    95.950    
               rinn:    6.6000    
                rcs:    7.1000    
            lambdas:    1.0000    
-------------------------------------------------------------------------------
L=0  Nkbl=2  erefs: 0.17977+309 0.17977+309
L=1  Nkbl=2  erefs: 0.17977+309 0.17977+309
L=2  Nkbl=1  erefs: 0.17977+309
L=3  Nkbl=1  erefs: 0.17977+309
===============================================================================
</basis_specs>

atom: Called for Ba                    (Z =  56)

read_vps: Pseudopotential generation method:
read_vps: ATM3      Troullier-Martins                       
Total valence charge:    8.00000

atom: Pseudopotential generated from an ionic configuration
atom: with net charge 2.00

xc_check: Exchange-correlation functional:
xc_check: Ceperley-Alder
V l=0 = -2*Zval/r beyond r=  3.0408
V l=1 = -2*Zval/r beyond r=  3.0408
V l=2 = -2*Zval/r beyond r=  3.0408
V l=3 = -2*Zval/r beyond r=  3.0408
All V_l potentials equal beyond r=  2.4587
This should be close to max(r_c) in ps generation
All pots = -2*Zval/r beyond r=  3.0408

VLOCAL1: 99.0% of the norm of Vloc inside      7.181 Ry
VLOCAL1: 99.9% of the norm of Vloc inside     16.365 Ry
atom: Maximum radius for 4*pi*r*r*local-pseudopot. charge    2.96576
atom: Maximum radius for r*vlocal+2*Zval:    2.61727
KBgen: More than one KB projector for l=  0
KBgen: ghost states analysis will be not performed
KBgen: More than one KB projector for l=  1
KBgen: ghost states analysis will be not performed
GHOST: No ghost state for L =  2
GHOST: No ghost state for L =  3

KBgen: Kleinman-Bylander projectors: 
   l= 0   rc=  3.079089   el= -3.386946   Ekb= 11.600221   kbcos=  0.215177
   l= 0   rc=  3.445729   el= -0.913761   Ekb= -3.641180   kbcos= -0.063003
   l= 1   rc=  3.157038   el= -2.283249   Ekb=  5.147960   kbcos=  0.277333
   l= 1   rc=  3.622397   el= -0.655160   Ekb= -1.163323   kbcos= -0.047531
   l= 2   rc=  3.360652   el= -0.958059   Ekb=  1.516300   kbcos=  0.326020
   l= 3   rc=  3.003065   el= -0.790344   Ekb=-11.048223   kbcos= -0.645336

KBgen: Total number of  Kleinman-Bylander projectors:   20
atom: -------------------------------------------------------------------------

atom: SANKEY-TYPE ORBITALS:
atom: Selected multiple-zeta basis: split     

atom: basis set generated (by rescaling the valence charge)
atom: for a cation of charge   0.7000

SPLIT: Orbitals with angular momentum L= 0

SPLIT: Basis orbitals for state 5s

   izeta = 1
                 lambda =    1.000000
                     rc =    6.518482
                 energy =   -2.111149
                kinetic =    1.019268
    potential(screened) =   -3.130417
       potential(ionic) =  -11.404495

SPLIT: Basis orbitals for state 6s

   izeta = 1
                 lambda =    1.000000
                     rc =    7.026172
                 energy =   -0.144977
                kinetic =    0.699691
    potential(screened) =   -0.844668
       potential(ionic) =   -5.701538

   izeta = 2
                 rmatch =    6.047476
              splitnorm =    0.877005
                 energy =    0.431199
                kinetic =    1.160814
    potential(screened) =   -0.729615
       potential(ionic) =   -6.764926

SPLIT: Orbitals with angular momentum L= 1

SPLIT: Basis orbitals for state 5p

   izeta = 1
                 lambda =    1.000000
                     rc =    6.683499
                 energy =   -1.104428
                kinetic =    1.361081
    potential(screened) =   -2.465510
       potential(ionic) =  -10.040308

SPLIT: Basis orbitals for state 6p

   izeta = 1
                 lambda =    1.000000
                     rc =    7.204041
                 energy =    0.107526
                kinetic =    0.941328
    potential(screened) =   -0.833802
       potential(ionic) =   -5.462010

SPLIT: Orbitals with angular momentum L= 2

SPLIT: Basis orbitals for state 5d

   izeta = 1
                 lambda =    1.000000
                     rc =    7.204041
                 energy =   -0.055970
                kinetic =    1.086999
    potential(screened) =   -1.142970
       potential(ionic) =   -6.717380
atom: Total number of Sankey-type orbitals: 14

atm_pop: Valence configuration (for local Pseudopot. screening):
 5s( 2.00) 6s( 2.00)                                                  
 5p( 6.00) 6p( 0.00)                                                  
 5d( 0.00)                                                            
Vna: chval, zval:   10.00000  10.00000

Vna:  Cut-off radius for the neutral-atom potential:   7.026172

atom: _________________________________________________________________________

<basis_specs>
===============================================================================
Ti                   Z=  22    Mass=  47.880        Charge=  1.9100    
Lmxo=2 Lmxkb=3     BasisType=split      Semic=T
L=0  Nsemic=1  Cnfigmx=4
          n=1  nzeta=1  polorb=0
            splnorm:   0.15000    
               vcte:    93.950    
               rinn:    5.2000    
                rcs:    5.6995    
            lambdas:    1.0000    
          n=2  nzeta=2  polorb=0
            splnorm:   0.15000    
               vcte:    96.470    
               rinn:    5.6000    
                rcs:    6.1000      5.0994    
            lambdas:    1.0000      1.0000    
L=1  Nsemic=1  Cnfigmx=4
          n=1  nzeta=1  polorb=0
            splnorm:   0.15000    
               vcte:    95.470    
               rinn:    5.2000    
                rcs:    5.6994    
            lambdas:    1.0000    
          n=2  nzeta=1  polorb=0
            splnorm:   0.15000    
               vcte:   0.50000    
               rinn:    1.7700    
                rcs:    3.0537    
            lambdas:    1.0000    
L=2  Nsemic=0  Cnfigmx=3
          n=1  nzeta=2  polorb=0
            splnorm:   0.15000    
               vcte:    46.050    
               rinn:    4.9500    
                rcs:    5.9433      4.7001    
            lambdas:    1.0000      1.0000    
-------------------------------------------------------------------------------
L=0  Nkbl=2  erefs: 0.17977+309 0.17977+309
L=1  Nkbl=2  erefs: 0.17977+309 0.17977+309
L=2  Nkbl=1  erefs: 0.17977+309
L=3  Nkbl=1  erefs: 0.17977+309
===============================================================================
</basis_specs>

atom: Called for Ti                    (Z =  22)

read_vps: Pseudopotential generation method:
read_vps: ATM3      Troullier-Martins                       
Total valence charge:   10.00000

atom: Pseudopotential generated from an ionic configuration
atom: with net charge 2.00

xc_check: Exchange-correlation functional:
xc_check: Ceperley-Alder
V l=0 = -2*Zval/r beyond r=  1.3619
V l=1 = -2*Zval/r beyond r=  1.3450
V l=2 = -2*Zval/r beyond r=  1.3619
V l=3 = -2*Zval/r beyond r=  1.9570
All V_l potentials equal beyond r=  1.9570
This should be close to max(r_c) in ps generation
All pots = -2*Zval/r beyond r=  1.9570

VLOCAL1: 99.0% of the norm of Vloc inside     11.334 Ry
VLOCAL1: 99.9% of the norm of Vloc inside     25.831 Ry
atom: Maximum radius for 4*pi*r*r*local-pseudopot. charge    2.39028
atom: Maximum radius for r*vlocal+2*Zval:    2.08320
KBgen: More than one KB projector for l=  0
KBgen: ghost states analysis will be not performed
KBgen: More than one KB projector for l=  1
KBgen: ghost states analysis will be not performed
GHOST: No ghost state for L =  2
GHOST: No ghost state for L =  3

KBgen: Kleinman-Bylander projectors: 
   l= 0   rc=  2.135936   el= -5.743976   Ekb= -5.805318   kbcos= -0.455192
   l= 0   rc=  2.245453   el= -1.267778   Ekb= 19.285053   kbcos=  0.028076
   l= 1   rc=  2.135936   el= -4.022769   Ekb= -4.339349   kbcos= -0.763416
   l= 1   rc=  2.273699   el= -0.909433   Ekb= -2.226591   kbcos= -0.073996
   l= 2   rc=  2.109401   el= -1.465431   Ekb=-15.974261   kbcos= -0.485371
   l= 3   rc=  2.390280   el= -0.279946   Ekb= -1.793497   kbcos= -0.025582

KBgen: Total number of  Kleinman-Bylander projectors:   20
atom: -------------------------------------------------------------------------

atom: SANKEY-TYPE ORBITALS:
atom: Selected multiple-zeta basis: split     

atom: basis set generated (by rescaling the valence charge)
atom: for a cation of charge   1.9100

SPLIT: Orbitals with angular momentum L= 0

SPLIT: Basis orbitals for state 3s

   izeta = 1
                 lambda =    1.000000
                     rc =    5.806269
                 energy =   -5.597682
                kinetic =    2.110270
    potential(screened) =   -7.707952
       potential(ionic) =  -22.848412

SPLIT: Basis orbitals for state 4s

   izeta = 1
                 lambda =    1.000000
                     rc =    6.103968
                 energy =   -1.179234
                kinetic =    1.125882
    potential(screened) =   -2.305116
       potential(ionic) =  -10.096665

   izeta = 2
                 rmatch =    5.124001
              splitnorm =    0.277785
                 energy =   -1.061654
                kinetic =    1.729786
    potential(screened) =   -2.791440
       potential(ionic) =  -11.724056

SPLIT: Orbitals with angular momentum L= 1

SPLIT: Basis orbitals for state 3p

   izeta = 1
                 lambda =    1.000000
                     rc =    5.806269
                 energy =   -3.881705
                kinetic =    4.778405
    potential(screened) =   -8.660110
       potential(ionic) =  -23.263886

SPLIT: Basis orbitals for state 4p

   izeta = 1
                 lambda =    1.000000
                     rc =    3.107819
                 energy =    0.770505
                kinetic =    5.534371
    potential(screened) =   -4.763865
       potential(ionic) =  -15.502075

SPLIT: Orbitals with angular momentum L= 2

SPLIT: Basis orbitals for state 3d

   izeta = 1
                 lambda =    1.000000
                     rc =    5.953258
                 energy =   -1.340771
                kinetic =    7.362238
    potential(screened) =   -8.703009
       potential(ionic) =  -21.522617

   izeta = 2
                 rmatch =    4.753750
              splitnorm =    0.009122
                 energy =   -1.328728
* WARNING: effective split_norm is quite small. Orbitals will be very similar.
                kinetic =    7.784434
    potential(screened) =   -9.113162
       potential(ionic) =  -22.268396
atom: Total number of Sankey-type orbitals: 19

atm_pop: Valence configuration (for local Pseudopot. screening):
 3s( 2.00) 4s( 2.00)                                                  
 3p( 6.00) 4p( 0.00)                                                  
 3d( 2.00)                                                            
Vna: chval, zval:   12.00000  12.00000

Vna:  Cut-off radius for the neutral-atom potential:   6.103968

atom: _________________________________________________________________________

<basis_specs>
===============================================================================
O                    Z=   8    Mass=  16.000        Charge=-0.28000    
Lmxo=2 Lmxkb=3     BasisType=split      Semic=F
L=0  Nsemic=0  Cnfigmx=2
          n=1  nzeta=2  polorb=0
            splnorm:   0.15000    
               vcte:    40.580    
               rinn:    3.9500    
                rcs:    4.9527      3.6033    
            lambdas:    1.0000      1.0000    
L=1  Nsemic=0  Cnfigmx=2
          n=1  nzeta=2  polorb=0
            splnorm:   0.15000    
               vcte:    36.780    
               rinn:    4.3500    
                rcs:    4.9999      3.8975    
            lambdas:    1.0000      1.0000    
L=2  Nsemic=0  Cnfigmx=3
          n=1  nzeta=1  polorb=0
            splnorm:   0.15000    
               vcte:    21.690    
               rinn:   0.93000    
                rcs:    2.7328    
            lambdas:    1.0000    
-------------------------------------------------------------------------------
L=0  Nkbl=1  erefs: 0.17977+309
L=1  Nkbl=1  erefs: 0.17977+309
L=2  Nkbl=1  erefs: 0.17977+309
L=3  Nkbl=1  erefs: 0.17977+309
===============================================================================
</basis_specs>

atom: Called for O                     (Z =   8)

read_vps: Pseudopotential generation method:
read_vps: ATM3      Troullier-Martins                       
Total valence charge:    6.00000

xc_check: Exchange-correlation functional:
xc_check: Ceperley-Alder
V l=0 = -2*Zval/r beyond r=  1.1278
V l=1 = -2*Zval/r beyond r=  1.1278
V l=2 = -2*Zval/r beyond r=  1.1278
V l=3 = -2*Zval/r beyond r=  1.4665
All V_l potentials equal beyond r=  1.4482
This should be close to max(r_c) in ps generation
All pots = -2*Zval/r beyond r=  1.4665

VLOCAL1: 99.0% of the norm of Vloc inside     20.696 Ry
VLOCAL1: 99.9% of the norm of Vloc inside     47.167 Ry
atom: Maximum radius for 4*pi*r*r*local-pseudopot. charge    1.74697
atom: Maximum radius for r*vlocal+2*Zval:    1.52250
GHOST: No ghost state for L =  0
GHOST: No ghost state for L =  1
GHOST: No ghost state for L =  2
GHOST: No ghost state for L =  3

KBgen: Kleinman-Bylander projectors: 
   l= 0   rc=  1.620715   el= -1.742414   Ekb= 12.222081   kbcos=  0.147924
   l= 1   rc=  1.580692   el= -0.676589   Ekb=-10.343706   kbcos= -0.441824
   l= 2   rc=  1.682657   el=  0.002386   Ekb= -2.867532   kbcos= -0.005157
   l= 3   rc=  1.746967   el=  0.003508   Ekb= -0.593619   kbcos= -0.000940

KBgen: Total number of  Kleinman-Bylander projectors:   16
atom: -------------------------------------------------------------------------

atom: SANKEY-TYPE ORBITALS:
atom: Selected multiple-zeta basis: split     

atom: basis set generated (by rescaling the valence charge)
atom: for an anion of charge  -0.2800

SPLIT: Orbitals with angular momentum L= 0

SPLIT: Basis orbitals for state 2s

   izeta = 1
                 lambda =    1.000000
                     rc =    4.930772
                 energy =   -1.739193
                kinetic =    1.445061
    potential(screened) =   -3.184254
       potential(ionic) =  -10.962557

   izeta = 2
                 rmatch =    3.652726
              splitnorm =    0.027759
                 energy =   -1.717885
* WARNING: effective split_norm is quite small. Orbitals will be very similar.
                kinetic =    1.725080
    potential(screened) =   -3.442965
       potential(ionic) =  -11.514570

SPLIT: Orbitals with angular momentum L= 1

SPLIT: Basis orbitals for state 2p

   izeta = 1
                 lambda =    1.000000
                     rc =    5.055603
                 energy =   -0.666651
                kinetic =    4.372891
    potential(screened) =   -5.039542
       potential(ionic) =  -12.474029

   izeta = 2
                 rmatch =    3.937239
              splitnorm =    0.041494
                 energy =   -0.646289
* WARNING: effective split_norm is quite small. Orbitals will be very similar.
                kinetic =    5.236356
    potential(screened) =   -5.882646
       potential(ionic) =  -13.808487

SPLIT: Orbitals with angular momentum L= 2

SPLIT: Basis orbitals for state 3d

   izeta = 1
                 lambda =    1.000000
                     rc =    2.774434
                 energy =    3.678926
                kinetic =    6.313626
    potential(screened) =   -2.634699
       potential(ionic) =   -9.713508
atom: Total number of Sankey-type orbitals: 13

atm_pop: Valence configuration (for local Pseudopot. screening):
 2s( 2.00)                                                            
 2p( 4.00)                                                            
 3d( 0.00)                                                            
Vna: chval, zval:    6.00000   6.00000

Vna:  Cut-off radius for the neutral-atom potential:   5.055603

atom: _________________________________________________________________________

prinput: Basis input ----------------------------------------------------------

PAO.BasisType split     

%block ChemicalSpeciesLabel
    1   56 Ba                      # Species index, atomic number, species label
    2   22 Ti                      # Species index, atomic number, species label
    3    8 O                       # Species index, atomic number, species label
%endblock ChemicalSpeciesLabel

%block PAO.Basis                 # Define Basis set
Ba                    5   0.700            # Label, l-shells, ionic net charge
 n=5   0   1                         # n, l, Nzeta 
   6.518   
   1.000   
 n=6   0   2                         # n, l, Nzeta 
   7.026      6.047   
   1.000      1.000   
 n=5   1   1                         # n, l, Nzeta 
   6.683   
   1.000   
 n=6   1   1                         # n, l, Nzeta 
   7.204   
   1.000   
 n=5   2   1                         # n, l, Nzeta 
   7.204   
   1.000   
Ti                    5   1.910            # Label, l-shells, ionic net charge
 n=3   0   1                         # n, l, Nzeta 
   5.806   
   1.000   
 n=4   0   2                         # n, l, Nzeta 
   6.104      5.124   
   1.000      1.000   
 n=3   1   1                         # n, l, Nzeta 
   5.806   
   1.000   
 n=4   1   1                         # n, l, Nzeta 
   3.108   
   1.000   
 n=3   2   2                         # n, l, Nzeta 
   5.953      4.754   
   1.000      1.000   
O                     3  -0.280            # Label, l-shells, ionic net charge
 n=2   0   2                         # n, l, Nzeta 
   4.931      3.653   
   1.000      1.000   
 n=2   1   2                         # n, l, Nzeta 
   5.056      3.937   
   1.000      1.000   
 n=3   2   1                         # n, l, Nzeta 
   2.774   
   1.000   
%endblock PAO.Basis

prinput: ----------------------------------------------------------------------

coor:   Atomic-coordinates input format  =     Fractional

siesta: Atomic coordinates (Bohr) and species
siesta:      0.00000   0.00000   0.00007  1        1
siesta:      3.72972   3.72972   3.72976  2        2
siesta:      3.72972   3.72972   0.00050  3        3
siesta:      3.72972   0.00000   3.72993  3        4
siesta:      0.00000   3.72972   3.72993  3        5

siesta: System type = bulk      

initatomlists: Number of atoms, orbitals, and projectors:      5    72    88

siesta: ******************** Simulation parameters ****************************
siesta:
siesta: The following are some of the parameters of the simulation.
siesta: A complete list of the parameters used, including default values,
siesta: can be found in file out.fdf
siesta:
redata: Non-Collinear-spin run           =     F
redata: SpinPolarized (Up/Down) run      =     F
redata: Number of spin components        =     1
redata: Long output                      =     F
redata: Maximum wall-clock time          = unlimited
redata: Number of Atomic Species         =        3
redata: Charge density info will appear in .RHO file
redata: Write Mulliken Pop.              =     Atomic and Orbital charges
redata: Mesh Cutoff                      =   300.0000  Ry
redata: Net charge of the system         =     0.0000 |e|
redata: Max. number of SCF Iter          =      100
redata: Performing Pulay mixing using    =     3 iterations
redata: Mix DM in first SCF step ?       =     F
redata: Write Pulay info on disk?        =     F
redata: New DM Mixing Weight             =     0.4000
redata: New DM Occupancy tolerance       = 0.000000000001
redata: No kicks to SCF
redata: DM Mixing Weight for Kicks       =     0.5000
redata: DM Tolerance for SCF             =     0.000100
redata: Require Energy convergence for SCF =     F
redata: DM Energy tolerance for SCF      =     0.000100 eV
redata: Require Harris convergence for SCF =     F
redata: DM Harris energy tolerance for SCF =     0.000100 eV
redata: Using Saved Data (generic)   =     F
redata: Use continuation files for DM    =     F
redata: Neglect nonoverlap interactions  =     F
redata: Method of Calculation            =     Diagonalization
redata: Divide and Conquer               =     T
redata: Electronic Temperature           =     0.0006  Ry
redata: Fix the spin of the system       =     F
redata: Dynamics option                  =     Verlet MD run
redata: Initial MD time step             =        1
redata:   Final MD time step             =        1
redata: Length of MD time step           =     1.0000  fs
redata: Initial Temperature of MD run    =     0.0000  K
redata: Perform a MD quench              =     F
redata: ***********************************************************************
Total number of electrons:    40.000000
Total ionic charge:    40.000000
 Kpoints in:            4 . Kpoints trimmed:            4

siesta: k-grid: Number of k-points =     4
siesta: k-grid: Cutoff (effective) =     3.947 Ang
siesta: k-grid: Supercell and displacements
siesta: k-grid:    2   0   0      0.500
siesta: k-grid:    0   2   0      0.500
siesta: k-grid:    0   0   2      0.500
Naive supercell factors:     6    6    6

superc: Internal auxiliary supercell:     6 x     6 x     6  =     216
superc: Number of atoms, orbitals, and projectors:   1080 15552 19008

* Maximum dynamic memory allocated =     3 MB

siesta:                 ==============================
                            Begin MD step =      1
                        ==============================

outcoor: Atomic coordinates (fractional):                   
    0.00000000    0.00000000    0.00000920   1       1  Ba
    0.50000000    0.50000000    0.50000430   2       2  Ti
    0.50000000    0.50000000    0.00006687   3       3  O
    0.50000000    0.00000000    0.50002742   3       4  O
    0.00000000    0.50000000    0.50002742   3       5  O

superc: Internal auxiliary supercell:     6 x     6 x     6  =     216
superc: Number of atoms, orbitals, and projectors:   1080 15552 19008

outcell: Unit cell vectors (Ang):
        3.947359    0.000000    0.000000
        0.000000    3.947359    0.000000
        0.000000    0.000000    3.947374

outcell: Cell vector modules (Ang)   :    3.947359    3.947359    3.947374
outcell: Cell angles (23,13,12) (deg):     90.0000     90.0000     90.0000
outcell: Cell volume (Ang**3)        :     61.5066
New_DM. Step:     1
Initializing Density Matrix...

InitMesh: MESH =    48 x    48 x    48 =      110592
InitMesh: Mesh cutoff (required, used) =   300.000   408.665 Ry
-- Node    1 :      110592      1:  48   1:  48   1:  48

* Maximum dynamic memory allocated =   119 MB

stepf: Fermi-Dirac step function

siesta: Program's energy decomposition (eV):
siesta: Eions   =      4593.159866
siesta: Ena     =       462.660149
siesta: Ekin    =      1668.379157
siesta: Enl     =      -576.882646
siesta: DEna    =         0.000049
siesta: DUscf   =         0.000000
siesta: DUext   =         0.000000
siesta: Exc     =      -565.630510
siesta: eta*DQ  =         0.000000
siesta: Emadel  =         0.000000
siesta: Emeta   =         0.000000
siesta: Emolmec =         0.000000
siesta: Ekinion =         0.000000
siesta: Eharris =     -3617.677869
siesta: Etot    =     -3604.633668
siesta: FreeEng =     -3604.633668

siesta: iscf   Eharris(eV)      E_KS(eV)   FreeEng(eV)   dDmax  Ef(eV)
siesta:    1    -3617.6779    -3604.6337    -3604.6337  2.1074-11.1464
timer: Routine,Calls,Time,% = IterSCF        1      71.778  82.26
elaps: Routine,Calls,Wall,% = IterSCF        1     113.420  85.71
siesta:    2    -3755.5599    -3564.2232    -3564.2232 13.1801 -4.3340
siesta:    3    -3599.6660    -3594.5114    -3594.5114  1.0420 -3.8696
siesta:    4    -3597.9924    -3593.4097    -3593.4097  0.6070 -5.1198
siesta:    5    -3598.0159    -3594.3054    -3594.3054  0.6371 -5.1722
siesta:    6    -3597.9177    -3595.5211    -3595.5211  0.0817 -5.9479
siesta:    7    -3597.8944    -3596.4234    -3596.4234  0.3069 -5.2995
siesta:    8    -3597.8251    -3597.4203    -3597.4203  0.0423 -5.6211
siesta:    9    -3597.8258    -3597.6667    -3597.6667  0.0443 -5.6021
siesta:   10    -3597.8252    -3597.8223    -3597.8223  0.0165 -5.6260
siesta:   11    -3597.8251    -3597.8446    -3597.8446  0.0102 -5.6251
siesta:   12    -3597.8251    -3597.8568    -3597.8568  0.0127 -5.6521
siesta:   13    -3597.8250    -3597.8443    -3597.8443  0.0011 -5.6372
siesta:   14    -3597.8250    -3597.8348    -3597.8348  0.0023 -5.6400
siesta:   15    -3597.8250    -3597.8260    -3597.8260  0.0006 -5.6390
siesta:   16    -3597.8251    -3597.8250    -3597.8250  0.0001 -5.6384

siesta: E_KS(eV) =            -3597.8250

siesta: E_KS - E_eggbox =     -3597.8250

siesta: Atomic forces (eV/Ang):
     1    0.000003    0.000004    0.000379
     2    0.000006    0.000004    0.001050
     3    0.000020    0.000022   -0.001703
     4    0.000008   -0.000033   -0.000033
     5   -0.000027    0.000004   -0.000031
----------------------------------------
   Tot    0.000010    0.000001   -0.000339
----------------------------------------
   Max    0.001703
   Res    0.000526    sqrt( Sum f_i^2 / 3N )
----------------------------------------
   Max    0.001703    constrained

Stress-tensor-Voigt (kbar):       -0.07       -0.07       -0.06        0.00        0.00        0.00
(Free)E + p*V (eV/cell)    -3597.8225
Target enthalpy (eV/cell)    -3597.8250

siesta: Stress tensor (static) (eV/Ang**3):
        -0.000042    0.000000    0.000000
         0.000000   -0.000042    0.000000
         0.000000    0.000000   -0.000038

siesta: Pressure (static):          0.06555906  kBar

siesta: Stress tensor (total) (eV/Ang**3):
        -0.000042    0.000000    0.000000
         0.000000   -0.000042    0.000000
         0.000000    0.000000   -0.000038

siesta: Pressure (total):          0.06555906  kBar
 
mulliken: Atomic and Orbital Populations:

Species: Ba                  
Atom  Qatom  Qorb
               5s      6s      6s      5py     5pz     5px     6py     6pz     
               6px     5dxy    5dyz    5dz2    5dxz    5dx2-y2 
   1  9.451   1.939   0.228   0.037   1.958   1.958   1.958   0.112   0.112
              0.112   0.253   0.253   0.139   0.253   0.139

Species: Ti                  
Atom  Qatom  Qorb
               3s      4s      4s      3py     3pz     3px     4py     4pz     
               4px     3dxy    3dyz    3dz2    3dxz    3dx2-y2 3dxy    3dyz    
               3dz2    3dxz    3dx2-y2 
   2 10.358   1.983   0.236   0.155   1.999   1.999   1.999   0.020   0.020
              0.020   0.203   0.203   0.549   0.203   0.549   0.087   0.087

             -0.023   0.087  -0.023

Species: O                   
Atom  Qatom  Qorb
               2s      2s      2py     2pz     2px     2py     2pz     2px     
               3dxy    3dyz    3dz2    3dxz    3dx2-y2 
   3  6.730   1.970  -0.066   1.473   0.944   1.473   0.171   0.590   0.171
              0.001   0.001   0.002   0.001   0.000
   4  6.730   1.970  -0.066   0.944   1.473   1.473   0.590   0.171   0.171
              0.001   0.001   0.001   0.001   0.002
   5  6.730   1.970  -0.066   1.473   1.473   0.944   0.171   0.171   0.590
              0.001   0.001   0.001   0.001   0.002

mulliken: Qtot =       40.000

siesta: Temp_ion =       0.000 K

* Maximum dynamic memory allocated =   119 MB

siesta: Program's energy decomposition (eV):
siesta: Eions   =      4593.159866
siesta: Ena     =       462.660149
siesta: Ekin    =      1767.021478
siesta: Enl     =      -608.853200
siesta: DEna    =       -51.928355
siesta: DUscf   =         7.511709
siesta: DUext   =         0.000000
siesta: Exc     =      -581.076913
siesta: eta*DQ  =         0.000000
siesta: Emadel  =         0.000000
siesta: Emeta   =         0.000000
siesta: Emolmec =         0.000000
siesta: Ekinion =         0.000000
siesta: Eharris =     -3597.825065
siesta: Etot    =     -3597.824997
siesta: FreeEng =     -3597.824997

siesta: Final energy (eV):
siesta:       Kinetic =    1767.021478
siesta:       Hartree =     798.420174
siesta:    Ext. field =       0.000000
siesta:   Exch.-corr. =    -581.076913
siesta:  Ion-electron =   -3485.553822
siesta:       Ion-ion =   -2096.635915
siesta:       Ekinion =       0.000000
siesta:         Total =   -3597.824997

siesta: Stress tensor (static) (eV/Ang**3):
siesta:    -0.000042    0.000000    0.000000
siesta:     0.000000   -0.000042    0.000000
siesta:     0.000000    0.000000   -0.000038

siesta: Cell volume =         61.506573 Ang**3

siesta: Pressure (static):
siesta:                Solid            Molecule  Units
siesta:           0.00000045          0.00000030  Ry/Bohr**3
siesta:           0.00004092          0.00002759  eV/Ang**3
siesta:           0.06555906          0.04420643  kBar
(Free)E+ p_basis*V_orbitals  =       -3594.621963
(Free)Eharris+ p_basis*V_orbitals  =       -3594.621988

* Maximum dynamic memory allocated : Node    0 =   119 MB

* Maximum memory occured during poison                        

timer: CPU execution times:
timer:  Routine       Calls   Time/call    Tot.time        %
timer:  siesta            1     343.454     343.454   100.00
timer:  Setup             1       1.055       1.055     0.31
timer:  bands             1       0.001       0.001     0.00
timer:  writewave         1       0.002       0.002     0.00
timer:  KSV_init          1       0.000       0.000     0.00
timer:  IterMD            1     342.392     342.392    99.69
timer:  hsparse           1       6.008       6.008     1.75
timer:  overlap           1       8.249       8.249     2.40
timer:  IterSCF          16      18.327     293.225    85.38
timer:  kinefsm           2       4.162       8.324     2.42
timer:  nlefsm            2      16.807      33.614     9.79
timer:  DHSCF            17      16.483     280.207    81.59
timer:  DHSCF1            1       1.277       1.277     0.37
timer:  DHSCF2            1      21.784      21.784     6.34
timer:  REORD           104       0.001       0.072     0.02
timer:  POISON           18       0.056       1.016     0.30
timer:  DHSCF3           17      14.429     245.292    71.42
timer:  rhoofd           17       7.410     125.971    36.68
timer:  cellXC           17       0.101       1.723     0.50
timer:  vmat             17       6.847     116.398    33.89
timer:  MolMec            2       0.000       0.000     0.00
timer:  diagon           16       0.274       4.381     1.28
timer:  c-eigval         64       0.023       1.468     0.43
timer:  c-buildHS        64       0.015       0.932     0.27
timer:  cdiag           128       0.012       1.479     0.43
timer:  cdiag1          128       0.001       0.098     0.03
timer:  cdiag2          128       0.004       0.451     0.13
timer:  cdiag3          128       0.007       0.893     0.26
timer:  cdiag4          128       0.000       0.031     0.01
timer:  c-eigvec         64       0.029       1.875     0.55
timer:  c-buildD         64       0.016       0.998     0.29
timer:  DHSCF4            1      11.830      11.830     3.44
timer:  dfscf             1      10.692      10.692     3.11
timer:  overfsm           1       0.188       0.188     0.05
timer:  optical           1       0.000       0.000     0.00
  

elaps: ELAPSED times:
elaps:  Routine       Calls   Time/call    Tot.time        %
elaps:  siesta            1     563.990     563.990   100.00
elaps:  Setup             1       1.154       1.154     0.20
elaps:  bands             1       0.001       0.001     0.00
elaps:  writewave         1       0.002       0.002     0.00
elaps:  KSV_init          1       0.000       0.000     0.00
elaps:  IterMD            1     562.803     562.803    99.79
elaps:  hsparse           1       9.335       9.335     1.66
elaps:  overlap           1       8.251       8.251     1.46
elaps:  IterSCF          16      30.125     482.006    85.46
elaps:  kinefsm           2       6.026      12.051     2.14
elaps:  nlefsm            2      33.423      66.846    11.85
elaps:  DHSCF            17      26.856     456.544    80.95
elaps:  DHSCF1            1       2.586       2.586     0.46
elaps:  DHSCF2            1      30.267      30.267     5.37
elaps:  REORD           104       0.001       0.079     0.01
elaps:  POISON           18       0.087       1.569     0.28
elaps:  DHSCF3           17      23.893     406.175    72.02
elaps:  rhoofd           17      12.177     207.010    36.70
elaps:  cellXC           17       0.163       2.767     0.49
elaps:  vmat             17      11.443     194.527    34.49
elaps:  MolMec            2       0.000       0.000     0.00
elaps:  diagon           16       0.440       7.032     1.25
elaps:  c-eigval         64       0.038       2.463     0.44
elaps:  c-buildHS        64       0.024       1.525     0.27
elaps:  cdiag           128       0.019       2.483     0.44
elaps:  cdiag1          128       0.002       0.296     0.05
elaps:  cdiag2          128       0.004       0.556     0.10
elaps:  cdiag3          128       0.012       1.587     0.28
elaps:  cdiag4          128       0.000       0.036     0.01
elaps:  c-eigvec         64       0.045       2.876     0.51
elaps:  c-buildD         64       0.024       1.554     0.28
elaps:  DHSCF4            1      17.488      17.488     3.10
elaps:  dfscf             1      15.250      15.250     2.70
elaps:  overfsm           1       0.188       0.188     0.03
elaps:  optical           1       0.000       0.000     0.00
  
>> End of run:  18-MAY-2009  13:35:28
