Siesta Version: siesta-2.0.1-patch-33
Architecture  : macosx-dualxeon-ifort-ompi
Compiler flags: /soft/parallel/openmpi-1.1.4-ifort/bin/mpif90 -O3 
PARALLEL version

* Running on    4 nodes in parallel
>> Start of run:  13-JUN-2007  15:44:57

                           ***********************       
                           *  WELCOME TO SIESTA  *       
                           ***********************       

reinit: Reading from standard input
************************** Dump of input data file ****************************
SystemName          Benzene
SystemLabel         C6H6             # Short name for naming files
NumberOfAtoms           12            # Number of atoms
NumberOfSpecies         2           # Number of species
%block Chemical_Species_Label
  1    6    C
  2    1    H
%endblock Chemical_Species_Label
PAO.BasisSize   SZ
AtomicCoordinatesFormat Ang
%block AtomicCoordinatesAndAtomicSpecies
   0.000  1.396  0.000  1
   1.209  0.698  0.000  1
   1.209 -0.698  0.000  1
   0.000 -1.396  0.000  1
  -1.209 -0.698  0.000  1
  -1.209  0.698  0.000  1
   0.000  2.479  0.000  2
   2.147  1.240  0.000  2
   2.147 -1.240  0.000  2
   0.000 -2.479  0.000  2
  -2.147 -1.240  0.000  2
  -2.147  1.240  0.000  2
%endblock AtomicCoordinatesAndAtomicSpecies
%block LatticeVectors
  1.000000  0.000000  0.000000
  0.000000  1.000000  0.000000
  0.000000  0.000000  1.000000
%endblock LatticeVectors
LatticeConstant        10.0000    Ang
MeshCutoff           100. Ry
xc.functional         LDA
xc.authors            CA
SolutionMethod        diagon        # OrderN or Diagon
MaxSCFIterations      100
DM.MixingWeight       0.20
DM.Tolerance          1.d-4
DM.NumberPulay         4
ElectronicTemperature  300 K
DM.UseSaveDM          true
MD.TypeOfRun           Nose           # Type of dynamics:
MD.NoseMass            0.2 Ry*fs**2
MD.TargetTemperature  50 K
MD.FinalTimeStep       100 fs
MD.LengthTimeStep      3 fs
WriteMDhistory        .true.
************************** End of input data file *****************************

reinit: -----------------------------------------------------------------------
reinit: System Name: Benzene                                                    
reinit: -----------------------------------------------------------------------
reinit: System Label: C6H6                                                        
reinit: -----------------------------------------------------------------------

initatom: Reading input for the pseudopotentials and atomic orbitals ----------
 Species number:            1  Label: C Atomic number:           6
 Species number:            2  Label: H Atomic number:           1
Ground state valence configuration:   2s02  2p02
Reading pseudopotential information in formatted form from C.psf
Ground state valence configuration:   1s01
Reading pseudopotential information in formatted form from H.psf
For C, standard SIESTA heuristics set lmxkb to 2
 (one more than the basis l, including polarization orbitals).
Use PS.lmax or PS.KBprojectors blocks to override.
For H, standard SIESTA heuristics set lmxkb to 1
 (one more than the basis l, including polarization orbitals).
Use PS.lmax or PS.KBprojectors blocks to override.

<basis_specs>
===============================================================================
C                    Z=   6    Mass=  12.010        Charge=  0.0000    
Lmxo=1 Lmxkb=2     BasisType=split      Semic=F
L=0  Nsemic=0  Cnfigmx=2
          n=1  nzeta=1  polorb=0
               vcte:    0.0000    
               rinn:    0.0000    
                rcs:    0.0000    
            lambdas:    1.0000    
L=1  Nsemic=0  Cnfigmx=2
          n=1  nzeta=1  polorb=0
               vcte:    0.0000    
               rinn:    0.0000    
                rcs:    0.0000    
            lambdas:    1.0000    
-------------------------------------------------------------------------------
L=0  Nkbl=1  erefs: 0.17977+309
L=1  Nkbl=1  erefs: 0.17977+309
L=2  Nkbl=1  erefs: 0.17977+309
===============================================================================
</basis_specs>

atom: Called for C   (Z =   6)

read_vps: Pseudopotential generation method:
read_vps: ATM3      Troullier-Martins                       

read_vps: Valence configuration (pseudopotential and basis set generation):
2s( 2.00) rc: 1.25
2p( 2.00) rc: 1.25
3d( 0.00) rc: 1.25
Total valence charge:    4.00000

xc_check: Exchange-correlation functional:
xc_check: Ceperley-Alder
V l=0 = -2*Zval/r beyond r=  1.3951
V l=1 = -2*Zval/r beyond r=  1.3777
V l=2 = -2*Zval/r beyond r=  1.3777
All V_l potentials equal beyond r=  1.2311
This should be close to max(r_c) in ps generation
All pots = -2*Zval/r beyond r=  1.3951

VLOCAL1: 99.0% of the norm of Vloc inside     28.641 Ry
VLOCAL1: 99.9% of the norm of Vloc inside     65.273 Ry
atom: Maximum radius for 4*pi*r*r*local-pseudopot. charge    1.48507
atom: Maximum radius for r*vlocal+2*Zval:    1.27815
GHOST: No ghost state for L =  0
GHOST: No ghost state for L =  1
GHOST: No ghost state for L =  2

KBgen: Kleinman-Bylander projectors: 
   l= 0   rc=  1.600766   el= -1.001946   Ekb=  7.816946   kbcos=  0.279978
   l= 1   rc=  1.620907   el= -0.398597   Ekb= -4.829535   kbcos= -0.287433
   l= 2   rc=  1.836783   el=  0.002326   Ekb= -1.327964   kbcos= -0.005365

KBgen: Total number of  Kleinman-Bylander projectors:    9
atom: -------------------------------------------------------------------------

atom: SANKEY-TYPE ORBITALS:

SPLIT: Orbitals with angular momentum L= 0

SPLIT: Basis orbitals for state 2s

SPLIT: PAO cut-off radius determined from an
SPLIT: energy shift=  0.020000 Ry

   izeta = 1
                 lambda =    1.000000
                     rc =    4.191849
                 energy =   -0.983900
                kinetic =    0.918801
    potential(screened) =   -1.902702
       potential(ionic) =   -5.506899

SPLIT: Orbitals with angular momentum L= 1

SPLIT: Basis orbitals for state 2p

SPLIT: PAO cut-off radius determined from an
SPLIT: energy shift=  0.020000 Ry

   izeta = 1
                 lambda =    1.000000
                     rc =    4.870301
                 energy =   -0.379088
                kinetic =    2.614064
    potential(screened) =   -2.993152
       potential(ionic) =   -6.506293
atom: Total number of Sankey-type orbitals:  4

atm_pop: Valence configuration(local Pseudopot. screening):
 2s( 2.00)                                                            
 2p( 2.00)                                                            
Vna: chval, zval:    4.00000   4.00000

Vna:  Cut-off radius for the neutral-atom potential:   4.870301

atom: _________________________________________________________________________

<basis_specs>
===============================================================================
H                    Z=   1    Mass=  1.0100        Charge=  0.0000    
Lmxo=0 Lmxkb=1     BasisType=split      Semic=F
L=0  Nsemic=0  Cnfigmx=1
          n=1  nzeta=1  polorb=0
               vcte:    0.0000    
               rinn:    0.0000    
                rcs:    0.0000    
            lambdas:    1.0000    
-------------------------------------------------------------------------------
L=0  Nkbl=1  erefs: 0.17977+309
L=1  Nkbl=1  erefs: 0.17977+309
===============================================================================
</basis_specs>

atom: Called for H   (Z =   1)

read_vps: Pseudopotential generation method:
read_vps: ATM3      Troullier-Martins                       

read_vps: Valence configuration (pseudopotential and basis set generation):
1s( 1.00) rc: 1.25
2p( 0.00) rc: 1.25
Total valence charge:    1.00000

xc_check: Exchange-correlation functional:
xc_check: Ceperley-Alder
V l=0 = -2*Zval/r beyond r=  1.2343
V l=1 = -2*Zval/r beyond r=  1.2189
All V_l potentials equal beyond r=  1.2343
This should be close to max(r_c) in ps generation
All pots = -2*Zval/r beyond r=  1.2343

VLOCAL1: 99.0% of the norm of Vloc inside     28.493 Ry
VLOCAL1: 99.9% of the norm of Vloc inside     64.935 Ry
atom: Maximum radius for 4*pi*r*r*local-pseudopot. charge    1.45251
atom: Maximum radius for r*vlocal+2*Zval:    1.21892
GHOST: No ghost state for L =  0
GHOST: No ghost state for L =  1

KBgen: Kleinman-Bylander projectors: 
   l= 0   rc=  1.364359   el= -0.467325   Ekb= -2.005361   kbcos= -0.336422
   l= 1   rc=  1.434438   el=  0.001430   Ekb= -0.501708   kbcos= -0.021697

KBgen: Total number of  Kleinman-Bylander projectors:    4
atom: -------------------------------------------------------------------------

atom: SANKEY-TYPE ORBITALS:

SPLIT: Orbitals with angular momentum L= 0

SPLIT: Basis orbitals for state 1s

SPLIT: PAO cut-off radius determined from an
SPLIT: energy shift=  0.020000 Ry

   izeta = 1
                 lambda =    1.000000
                     rc =    4.828263
                 energy =   -0.449375
                kinetic =    0.929372
    potential(screened) =   -1.378747
       potential(ionic) =   -1.915047
atom: Total number of Sankey-type orbitals:  1

atm_pop: Valence configuration(local Pseudopot. screening):
 1s( 1.00)                                                            
Vna: chval, zval:    1.00000   1.00000

Vna:  Cut-off radius for the neutral-atom potential:   4.828263

atom: _________________________________________________________________________

prinput: Basis input ----------------------------------------------------------

PAO.BasisType split     

%block ChemicalSpeciesLabel
    1    6 C                       # Species index, atomic number, species label
    2    1 H                       # Species index, atomic number, species label
%endblock ChemicalSpeciesLabel

%block PAO.Basis                 # Define Basis set
C           2                    # Species label, number of l-shells
 n=2   0   1                         # n, l, Nzeta 
   4.192   
   1.000   
 n=2   1   1                         # n, l, Nzeta 
   4.870   
   1.000   
H           1                    # Species label, number of l-shells
 n=1   0   1                         # n, l, Nzeta 
   4.828   
   1.000   
%endblock PAO.Basis

prinput: ----------------------------------------------------------------------


siesta: ******************** Simulation parameters ****************************
siesta:
siesta: The following are some of the parameters of the simulation.
siesta: A complete list of the parameters used, including default values,
siesta: can be found in file out.fdf
siesta:
coor:   Atomic-coordinates input format  =     Cartesian coordinates
coor:                                          (in Angstroms)
redata: Number of spin components        =     1
redata: Long output                      =     F
redata: Number of Atomic Species         =     2
redata: Charge density info will appear in .RHO file
redata: Write Mulliken Pop.              =     NO
redata: Mesh Cutoff                      =   100.0000  Ry
redata: Net charge of the system         =     0.0000 |e|
redata: Max. number of SCF Iter          =   100
redata: Performing Pulay mixing using    =     4 iterations
redata: Mix DM in first SCF step ?       =     F
redata: Write Pulay info on disk?        =     F
redata: New DM Mixing Weight             =     0.2000
redata: New DM Occupancy tolerance       = 0.000000000001
redata: No kicks to SCF
redata: DM Mixing Weight for Kicks       =     0.5000
redata: DM Tolerance for SCF             =     0.000100
redata: Require Energy convergence for SCF =     F
redata: DM Energy tolerance for SCF      =     0.000100 eV
redata: Using Saved Data (generic)   =     F
redata: Use continuation files for DM    =     T
redata: Neglect nonoverlap interactions  =     F
redata: Method of Calculation            =     Diagonalization
redata: Divide and Conquer               =     T
redata: Electronic Temperature           =     0.0019  Ry
redata: Fix the spin of the system       =     F
redata: Dynamics option                  =     Nose thermostat MD run
redata: Initial MD time step             =     1
redata:   Final MD time step             =   100
redata: Length of MD time step           =     3.0000  fs
redata: Initial Temperature of MD run    =     0.0000  K
redata: Perform a MD quench              =     F
redata: Nose mass                        =     0.2000  Ry/fs**2
redata: Target Temperature               =    50.0000  Kelvin
redata: ***********************************************************************

siesta: Atomic coordinates (Bohr) and species
siesta:      0.00000   2.63806   0.00000  1        1
siesta:      2.28468   1.31903   0.00000  1        2
siesta:      2.28468  -1.31903   0.00000  1        3
siesta:      0.00000  -2.63806   0.00000  1        4
siesta:     -2.28468  -1.31903   0.00000  1        5
siesta:     -2.28468   1.31903   0.00000  1        6
siesta:      0.00000   4.68463   0.00000  2        7
siesta:      4.05724   2.34326   0.00000  2        8
siesta:      4.05724  -2.34326   0.00000  2        9
siesta:      0.00000  -4.68463   0.00000  2       10
siesta:     -4.05724  -2.34326   0.00000  2       11
siesta:     -4.05724   2.34326   0.00000  2       12

initatomlists: Number of atoms, orbitals, and projectors:     12    30    78

siesta: System type = chain     

* ProcessorY, Blocksize:    2   8


siesta: k-grid: Number of k-points =     1
siesta: k-grid: Cutoff (effective) =     5.000 Ang
siesta: k-grid: Supercell and displacements
siesta: k-grid:    0   1   0      0.000
siesta: k-grid:    0   0   1      0.000
siesta: k-grid:    1   0   0      0.000

* Maximum dynamic memory allocated =     1 MB

siesta:                 ==============================
                            Begin MD step =      1
                        ==============================

outcell: Unit cell vectors (Ang):
       10.000000    0.000000    0.000000
        0.000000   10.000000    0.000000
        0.000000    0.000000   10.000000

outcell: Cell vector modules (Ang)   :   10.000000   10.000000   10.000000
outcell: Cell angles (23,13,12) (deg):     90.0000     90.0000     90.0000
outcell: Cell volume (Ang**3)        :   1000.0000

iodm: Reading Density Matrix from files

InitMesh: MESH =    64 x    64 x    64 =      262144
InitMesh: Mesh cutoff (required, used) =   100.000   113.204 Ry

* Maximum dynamic memory allocated =     5 MB

stepf: Fermi-Dirac step function

siesta: Program's energy decomposition (eV):
siesta: Eions   =      2015.050817
siesta: Ena     =       647.909550
siesta: Ekin    =       690.715924
siesta: Enl     =       -28.893254
siesta: DEna    =        20.572525
siesta: DUscf   =         3.186147
siesta: DUext   =         0.000000
siesta: Exc     =      -319.900265
siesta: eta*DQ  =         0.000000
siesta: Emadel  =         0.000000
siesta: Ekinion =         0.000000
siesta: Eharris =     -1014.161973
siesta: Etot    =     -1001.460190
siesta: FreeEng =     -1001.460190

siesta: iscf   Eharris(eV)      E_KS(eV)   FreeEng(eV)   dDmax  Ef(eV)
siesta:    1    -1014.1620    -1001.4602    -1001.4602  0.7857 -6.8411
timer: Routine,Calls,Time,% = IterSCF        1       1.206  45.65
elaps: Routine,Calls,Wall,% = IterSCF        1       0.333  44.78
siesta:    2    -1012.7387    -1009.6862    -1009.6862  0.3956 -3.8828
siesta:    3    -1011.4452    -1009.2575    -1009.2575  0.1775 -2.8017
siesta:    4    -1011.3107    -1010.8571    -1010.8571  0.0502 -3.1777
siesta:    5    -1011.2865    -1010.9938    -1010.9938  0.0133 -3.4374
siesta:    6    -1011.2855    -1011.1531    -1011.1531  0.0087 -3.4561
siesta:    7    -1011.2849    -1011.2241    -1011.2241  0.0040 -3.4457
siesta:    8    -1011.2847    -1011.2475    -1011.2475  0.0015 -3.4512
siesta:    9    -1011.2846    -1011.2582    -1011.2582  0.0006 -3.4537
siesta:   10    -1011.2846    -1011.2723    -1011.2723  0.0003 -3.4540
siesta:   11    -1011.2846    -1011.2776    -1011.2776  0.0001 -3.4529
siesta:   12    -1011.2846    -1011.2813    -1011.2813  0.0001 -3.4522

siesta: E_KS(eV) =            -1011.2833

siesta: E_KS - E_eggbox =     -1011.2833

siesta: Atomic forces (eV/Ang):
----------------------------------------
   Tot   -0.000011    0.000012   -0.000062
----------------------------------------
   Max    3.774919
   Res    1.649736    sqrt( Sum f_i^2 / 3N )
----------------------------------------
   Max    3.774919    constrained

Stress-tensor-Voigt (kbar):      -35.11      -34.88       -0.01        0.00        0.00        0.00
Target enthalpy (eV/cell)    -1011.2833

siesta: Stress tensor (static) (eV/Ang**3):
        -0.021913    0.000000    0.000000
         0.000000   -0.021771    0.000000
         0.000000    0.000000   -0.000008

siesta: Pressure (static):         23.33452719  kBar

siesta: Stress tensor (total) (eV/Ang**3):
        -0.021913    0.000000    0.000000
         0.000000   -0.021771    0.000000
         0.000000    0.000000   -0.000008

siesta: Pressure (total):         23.33452719  kBar

siesta: Temp_ion =       0.000 K

* Maximum dynamic memory allocated =     5 MB

siesta:                 ==============================
                            Begin MD step =      2
                        ==============================

outcell: Unit cell vectors (Ang):
       10.000000    0.000000    0.000000
        0.000000   10.000000    0.000000
        0.000000    0.000000   10.000000

outcell: Cell vector modules (Ang)   :   10.000000   10.000000   10.000000
outcell: Cell angles (23,13,12) (deg):     90.0000     90.0000     90.0000
outcell: Cell volume (Ang**3)        :   1000.0000

siesta: iscf   Eharris(eV)      E_KS(eV)   FreeEng(eV)   dDmax  Ef(eV)
siesta:    1    -1019.0096    -1016.7577    -1016.7577  1.0525 -3.1527
siesta:    2    -1019.7443    -1004.5229    -1004.5229  0.7746 -9.1353
siesta:    3    -1012.0997    -1012.2026    -1012.2026  0.2339 -4.1885
siesta:    4    -1011.8442    -1012.0538    -1012.0538  0.1278 -3.3731
siesta:    5    -1011.8470    -1011.1195    -1011.1195  0.0240 -3.6346
siesta:    6    -1011.8360    -1011.4584    -1011.4584  0.0137 -3.4944
siesta:    7    -1011.8335    -1011.7103    -1011.7103  0.0035 -3.4711
siesta:    8    -1011.8334    -1011.7475    -1011.7475  0.0024 -3.4746
siesta:    9    -1011.8334    -1011.7859    -1011.7859  0.0014 -3.4730
siesta:   10    -1011.8334    -1011.8187    -1011.8187  0.0006 -3.4693
siesta:   11    -1011.8334    -1011.8316    -1011.8316  0.0005 -3.4694
siesta:   12    -1011.8334    -1011.8354    -1011.8354  0.0002 -3.4708
siesta:   13    -1011.8334    -1011.8349    -1011.8349  0.0001 -3.4716

siesta: E_KS(eV) =            -1011.8344

siesta: Atomic forces (eV/Ang):
----------------------------------------
   Tot   -0.000008   -0.000007   -0.000009
----------------------------------------
   Max    4.617590
   Res    2.011016    sqrt( Sum f_i^2 / 3N )
----------------------------------------
   Max    4.617590    constrained

Stress-tensor-Voigt (kbar):       -9.56       -8.56       -0.03        0.00        0.00        0.00
Target enthalpy (eV/cell)    -1011.8344

siesta: Stress tensor (static) (eV/Ang**3):
        -0.005965    0.000000    0.000000
         0.000000   -0.005343    0.000000
         0.000000    0.000000   -0.000017

siesta: Pressure (static):          6.04812784  kBar

siesta: Stress tensor (total) (eV/Ang**3):
        -0.005965    0.000000    0.000000
         0.000000   -0.005343    0.000000
         0.000000    0.000000   -0.000017

siesta: Pressure (total):          6.04812784  kBar

siesta: Temp_ion =     188.533 K

* Maximum dynamic memory allocated =     5 MB

siesta:                 ==============================
                            Begin MD step =      3
                        ==============================

outcell: Unit cell vectors (Ang):
       10.000000    0.000000    0.000000
        0.000000   10.000000    0.000000
        0.000000    0.000000   10.000000

outcell: Cell vector modules (Ang)   :   10.000000   10.000000   10.000000
outcell: Cell angles (23,13,12) (deg):     90.0000     90.0000     90.0000
outcell: Cell volume (Ang**3)        :   1000.0000

siesta: iscf   Eharris(eV)      E_KS(eV)   FreeEng(eV)   dDmax  Ef(eV)
siesta:    1    -1013.1629    -1012.2660    -1012.2660  0.1605 -5.6795
siesta:    2    -1013.1880    -1011.6512    -1011.6512  0.2253 -2.0404
siesta:    3    -1012.4128    -1012.3141    -1012.3141  0.0139 -4.0713
siesta:    4    -1012.3988    -1012.3608    -1012.3608  0.0094 -3.9777
siesta:    5    -1012.3901    -1012.4447    -1012.4447  0.0052 -3.7972
siesta:    6    -1012.3896    -1012.3992    -1012.3992  0.0003 -3.8319
siesta:    7    -1012.3896    -1012.3978    -1012.3978  0.0002 -3.8273
siesta:    8    -1012.3896    -1012.3958    -1012.3958  0.0001 -3.8272
siesta:    9    -1012.3896    -1012.3896    -1012.3896  0.0000 -3.8278

siesta: E_KS(eV) =            -1012.3896

siesta: Atomic forces (eV/Ang):
----------------------------------------
   Tot    0.000015    0.000008   -0.000002
----------------------------------------
   Max    2.451003
   Res    1.087370    sqrt( Sum f_i^2 / 3N )
----------------------------------------
   Max    2.451003    constrained

Stress-tensor-Voigt (kbar):       -3.61       -2.93       -0.05        0.05        0.00        0.00
Target enthalpy (eV/cell)    -1012.3896

siesta: Stress tensor (static) (eV/Ang**3):
        -0.002200    0.000000    0.000000
         0.000000   -0.001810    0.000000
         0.000000    0.000000   -0.000028

siesta: Pressure (static):          2.15666350  kBar

siesta: Stress tensor (total) (eV/Ang**3):
        -0.002256    0.000032    0.000000
         0.000032   -0.001828    0.000000
         0.000000    0.000000   -0.000028

siesta: Pressure (total):          2.19600356  kBar

siesta: Temp_ion =     149.866 K

* Maximum dynamic memory allocated =     5 MB

siesta:                 ==============================
                            Begin MD step =      4
                        ==============================

outcell: Unit cell vectors (Ang):
       10.000000    0.000000    0.000000
        0.000000   10.000000    0.000000
        0.000000    0.000000   10.000000

outcell: Cell vector modules (Ang)   :   10.000000   10.000000   10.000000
outcell: Cell angles (23,13,12) (deg):     90.0000     90.0000     90.0000
outcell: Cell volume (Ang**3)        :   1000.0000

siesta: iscf   Eharris(eV)      E_KS(eV)   FreeEng(eV)   dDmax  Ef(eV)
siesta:    1    -1012.5466    -1013.2570    -1013.2570  0.0433 -4.3776
siesta:    2    -1012.5401    -1012.4803    -1012.4803  0.0430 -3.6292
siesta:    3    -1012.5116    -1012.8152    -1012.8152  0.0128 -4.0013
siesta:    4    -1012.5111    -1012.5091    -1012.5091  0.0009 -3.9702
siesta:    5    -1012.5111    -1012.5129    -1012.5129  0.0007 -3.9731
siesta:    6    -1012.5111    -1012.5115    -1012.5115  0.0000 -3.9749

siesta: E_KS(eV) =            -1012.5113

siesta: Atomic forces (eV/Ang):
----------------------------------------
   Tot    0.000006    0.000003    0.000005
----------------------------------------
   Max    1.041213
   Res    0.496782    sqrt( Sum f_i^2 / 3N )
----------------------------------------
   Max    1.041213    constrained

Stress-tensor-Voigt (kbar):       -9.30       -8.73       -0.02        0.01        0.00        0.00
Target enthalpy (eV/cell)    -1012.5113

siesta: Stress tensor (static) (eV/Ang**3):
        -0.005796    0.000000    0.000000
         0.000000   -0.005444    0.000000
         0.000000    0.000000   -0.000014

siesta: Pressure (static):          6.01010001  kBar

siesta: Stress tensor (total) (eV/Ang**3):
        -0.005803    0.000004    0.000000
         0.000004   -0.005446    0.000000
         0.000000    0.000000   -0.000014

siesta: Pressure (total):          6.01511104  kBar

siesta: Temp_ion =      18.137 K

* Maximum dynamic memory allocated =     5 MB

siesta:                 ==============================
                            Begin MD step =      5
                        ==============================

outcell: Unit cell vectors (Ang):
       10.000000    0.000000    0.000000
        0.000000   10.000000    0.000000
        0.000000    0.000000   10.000000

outcell: Cell vector modules (Ang)   :   10.000000   10.000000   10.000000
outcell: Cell angles (23,13,12) (deg):     90.0000     90.0000     90.0000
outcell: Cell volume (Ang**3)        :   1000.0000

siesta: iscf   Eharris(eV)      E_KS(eV)   FreeEng(eV)   dDmax  Ef(eV)
siesta:    1    -1012.8868    -1012.1032    -1012.1032  0.1021 -2.9003
siesta:    2    -1012.8784    -1012.3193    -1012.3193  0.1311 -5.0817
siesta:    3    -1012.6034    -1012.3575    -1012.3575  0.0082 -3.8672
siesta:    4    -1012.5972    -1012.4837    -1012.4837  0.0052 -3.9281
siesta:    5    -1012.5953    -1012.6245    -1012.6245  0.0026 -4.0168
siesta:    6    -1012.5951    -1012.6002    -1012.6002  0.0001 -4.0038

siesta: E_KS(eV) =            -1012.5989

siesta: Atomic forces (eV/Ang):
----------------------------------------
   Tot   -0.000003    0.000005    0.000003
----------------------------------------
   Max    0.858428
   Res    0.386972    sqrt( Sum f_i^2 / 3N )
----------------------------------------
   Max    0.858428    constrained

Stress-tensor-Voigt (kbar):       -2.42       -1.68       -0.03        0.00        0.00        0.00
Target enthalpy (eV/cell)    -1012.5989

siesta: Stress tensor (static) (eV/Ang**3):
        -0.001510    0.000000    0.000000
         0.000000   -0.001049    0.000000
         0.000000    0.000000   -0.000022

siesta: Pressure (static):          1.37803672  kBar

siesta: Stress tensor (total) (eV/Ang**3):
        -0.001510    0.000000    0.000000
         0.000000   -0.001049    0.000000
         0.000000    0.000000   -0.000022

siesta: Pressure (total):          1.37826266  kBar

siesta: Temp_ion =       8.273 K

* Maximum dynamic memory allocated =     5 MB

siesta:                 ==============================
                            Begin MD step =      6
                        ==============================

outcell: Unit cell vectors (Ang):
       10.000000    0.000000    0.000000
        0.000000   10.000000    0.000000
        0.000000    0.000000   10.000000

outcell: Cell vector modules (Ang)   :   10.000000   10.000000   10.000000
outcell: Cell angles (23,13,12) (deg):     90.0000     90.0000     90.0000
outcell: Cell volume (Ang**3)        :   1000.0000

siesta: iscf   Eharris(eV)      E_KS(eV)   FreeEng(eV)   dDmax  Ef(eV)
siesta:    1    -1012.6805    -1012.9033    -1012.9033  0.0464 -4.5586
siesta:    2    -1012.6741    -1012.5601    -1012.5601  0.0596 -3.5580
siesta:    3    -1012.6190    -1012.7492    -1012.7492  0.0057 -4.1026
siesta:    4    -1012.6172    -1012.6350    -1012.6350  0.0015 -4.0375
siesta:    5    -1012.6172    -1012.6170    -1012.6170  0.0013 -4.0319
siesta:    6    -1012.6172    -1012.6179    -1012.6179  0.0000 -4.0378

siesta: E_KS(eV) =            -1012.6177

siesta: Atomic forces (eV/Ang):
----------------------------------------
   Tot   -0.000005   -0.000012    0.000005
----------------------------------------
   Max    0.347572
   Res    0.136526    sqrt( Sum f_i^2 / 3N )
----------------------------------------
   Max    0.347572    constrained

Stress-tensor-Voigt (kbar):       -3.03       -2.29       -0.03        0.00        0.00        0.00
Target enthalpy (eV/cell)    -1012.6177

siesta: Stress tensor (static) (eV/Ang**3):
        -0.001891    0.000000    0.000000
         0.000000   -0.001430    0.000000
         0.000000    0.000000   -0.000021

siesta: Pressure (static):          1.78491155  kBar

siesta: Stress tensor (total) (eV/Ang**3):
        -0.001894    0.000001    0.000000
         0.000001   -0.001431    0.000000
         0.000000    0.000000   -0.000021

siesta: Pressure (total):          1.78681575  kBar

siesta: Temp_ion =       4.241 K

* Maximum dynamic memory allocated =     5 MB

siesta:                 ==============================
                            Begin MD step =      7
                        ==============================

outcell: Unit cell vectors (Ang):
       10.000000    0.000000    0.000000
        0.000000   10.000000    0.000000
        0.000000    0.000000   10.000000

outcell: Cell vector modules (Ang)   :   10.000000   10.000000   10.000000
outcell: Cell angles (23,13,12) (deg):     90.0000     90.0000     90.0000
outcell: Cell volume (Ang**3)        :   1000.0000

siesta: iscf   Eharris(eV)      E_KS(eV)   FreeEng(eV)   dDmax  Ef(eV)
siesta:    1    -1012.6190    -1012.5855    -1012.5855  0.0050 -4.0165
siesta:    2    -1012.6190    -1012.6178    -1012.6178  0.0062 -4.1194
siesta:    3    -1012.6183    -1012.6030    -1012.6030  0.0005 -4.0632
siesta:    4    -1012.6183    -1012.6177    -1012.6177  0.0002 -4.0702
siesta:    5    -1012.6183    -1012.6188    -1012.6188  0.0001 -4.0704

siesta: E_KS(eV) =            -1012.6186

siesta: Atomic forces (eV/Ang):
----------------------------------------
   Tot   -0.000001    0.000000    0.000002
----------------------------------------
   Max    0.191744
   Res    0.080053    sqrt( Sum f_i^2 / 3N )
----------------------------------------
   Max    0.191744    constrained

Stress-tensor-Voigt (kbar):       -2.94       -2.12       -0.03        0.00        0.00        0.00
Target enthalpy (eV/cell)    -1012.6186

siesta: Stress tensor (static) (eV/Ang**3):
        -0.001832    0.000000    0.000000
         0.000000   -0.001321    0.000000
         0.000000    0.000000   -0.000018

siesta: Pressure (static):          1.69358555  kBar

siesta: Stress tensor (total) (eV/Ang**3):
        -0.001832    0.000000    0.000000
         0.000000   -0.001322    0.000000
         0.000000    0.000000   -0.000018

siesta: Pressure (total):          1.69379431  kBar

siesta: Temp_ion =       2.336 K

* Maximum dynamic memory allocated =     5 MB

siesta:                 ==============================
                            Begin MD step =      8
                        ==============================

outcell: Unit cell vectors (Ang):
       10.000000    0.000000    0.000000
        0.000000   10.000000    0.000000
        0.000000    0.000000   10.000000

outcell: Cell vector modules (Ang)   :   10.000000   10.000000   10.000000
outcell: Cell angles (23,13,12) (deg):     90.0000     90.0000     90.0000
outcell: Cell volume (Ang**3)        :   1000.0000

siesta: iscf   Eharris(eV)      E_KS(eV)   FreeEng(eV)   dDmax  Ef(eV)
siesta:    1    -1012.6279    -1012.5305    -1012.5305  0.0135 -3.9543
siesta:    2    -1012.6276    -1012.6181    -1012.6181  0.0172 -4.2396
siesta:    3    -1012.6230    -1012.5798    -1012.5798  0.0016 -4.0835
siesta:    4    -1012.6228    -1012.6220    -1012.6220  0.0004 -4.1019
siesta:    5    -1012.6228    -1012.6246    -1012.6246  0.0002 -4.1029
siesta:    6    -1012.6228    -1012.6230    -1012.6230  0.0000 -4.1013

siesta: E_KS(eV) =            -1012.6230

siesta: Atomic forces (eV/Ang):
----------------------------------------
   Tot    0.000002   -0.000005   -0.000006
----------------------------------------
   Max    0.172080
   Res    0.086184    sqrt( Sum f_i^2 / 3N )
----------------------------------------
   Max    0.172080    constrained

Stress-tensor-Voigt (kbar):       -0.68       -0.13       -0.03        0.00        0.00        0.00
Target enthalpy (eV/cell)    -1012.6230

siesta: Stress tensor (static) (eV/Ang**3):
        -0.000424    0.000000    0.000000
         0.000000   -0.000081    0.000000
         0.000000    0.000000   -0.000021

siesta: Pressure (static):          0.28072470  kBar

siesta: Stress tensor (total) (eV/Ang**3):
        -0.000424    0.000000    0.000000
         0.000000   -0.000081    0.000000
         0.000000    0.000000   -0.000021

siesta: Pressure (total):          0.28085584  kBar

siesta: Temp_ion =       3.476 K

* Maximum dynamic memory allocated =     5 MB

siesta:                 ==============================
                            Begin MD step =      9
                        ==============================

outcell: Unit cell vectors (Ang):
       10.000000    0.000000    0.000000
        0.000000   10.000000    0.000000
        0.000000    0.000000   10.000000

outcell: Cell vector modules (Ang)   :   10.000000   10.000000   10.000000
outcell: Cell angles (23,13,12) (deg):     90.0000     90.0000     90.0000
outcell: Cell volume (Ang**3)        :   1000.0000

siesta: iscf   Eharris(eV)      E_KS(eV)   FreeEng(eV)   dDmax  Ef(eV)
siesta:    1    -1012.6246    -1012.6522    -1012.6522  0.0081 -4.2271
siesta:    2    -1012.6244    -1012.6211    -1012.6211  0.0103 -4.0588
siesta:    3    -1012.6229    -1012.6366    -1012.6366  0.0007 -4.1516
siesta:    4    -1012.6228    -1012.6231    -1012.6231  0.0003 -4.1395
siesta:    5    -1012.6228    -1012.6227    -1012.6227  0.0001 -4.1400
siesta:    6    -1012.6228    -1012.6227    -1012.6227  0.0000 -4.1402

siesta: E_KS(eV) =            -1012.6227

siesta: Atomic forces (eV/Ang):
----------------------------------------
   Tot    0.000005   -0.000003    0.000004
----------------------------------------
   Max    0.118220
   Res    0.046915    sqrt( Sum f_i^2 / 3N )
----------------------------------------
   Max    0.118220    constrained

Stress-tensor-Voigt (kbar):        0.48        1.00       -0.02        0.00        0.00        0.00
Target enthalpy (eV/cell)    -1012.6227

siesta: Stress tensor (static) (eV/Ang**3):
         0.000300    0.000000    0.000000
         0.000000    0.000627    0.000000
         0.000000    0.000000   -0.000014

siesta: Pressure (static):         -0.48725317  kBar

siesta: Stress tensor (total) (eV/Ang**3):
         0.000299    0.000000    0.000000
         0.000000    0.000627    0.000000
         0.000000    0.000000   -0.000014

siesta: Pressure (total):         -0.48688181  kBar

siesta: Temp_ion =       5.793 K

* Maximum dynamic memory allocated =     5 MB

siesta:                 ==============================
                            Begin MD step =     10
                        ==============================

outcell: Unit cell vectors (Ang):
       10.000000    0.000000    0.000000
        0.000000   10.000000    0.000000
        0.000000    0.000000   10.000000

outcell: Cell vector modules (Ang)   :   10.000000   10.000000   10.000000
outcell: Cell angles (23,13,12) (deg):     90.0000     90.0000     90.0000
outcell: Cell volume (Ang**3)        :   1000.0000

siesta: iscf   Eharris(eV)      E_KS(eV)   FreeEng(eV)   dDmax  Ef(eV)
siesta:    1    -1012.6148    -1012.6356    -1012.6356  0.0103 -4.3022
siesta:    2    -1012.6144    -1012.6092    -1012.6092  0.0128 -4.0918
siesta:    3    -1012.6119    -1012.6231    -1012.6231  0.0008 -4.2076
siesta:    4    -1012.6118    -1012.6121    -1012.6121  0.0003 -4.1915
siesta:    5    -1012.6118    -1012.6118    -1012.6118  0.0002 -4.1922
siesta:    6    -1012.6118    -1012.6118    -1012.6118  0.0000 -4.1926

siesta: E_KS(eV) =            -1012.6118

siesta: Atomic forces (eV/Ang):
----------------------------------------
   Tot    0.000003   -0.000008    0.000007
----------------------------------------
   Max    0.556397
   Res    0.252094    sqrt( Sum f_i^2 / 3N )
----------------------------------------
   Max    0.556397    constrained

Stress-tensor-Voigt (kbar):        0.51        0.91       -0.03        0.00        0.00        0.00
Target enthalpy (eV/cell)    -1012.6118

siesta: Stress tensor (static) (eV/Ang**3):
         0.000317    0.000000    0.000000
         0.000000    0.000567    0.000000
         0.000000    0.000000   -0.000017

siesta: Pressure (static):         -0.46325681  kBar

siesta: Stress tensor (total) (eV/Ang**3):
         0.000317    0.000000    0.000000
         0.000000    0.000567    0.000000
         0.000000    0.000000   -0.000017

siesta: Pressure (total):         -0.46324399  kBar

siesta: Temp_ion =      12.169 K

* Maximum dynamic memory allocated =     5 MB

siesta:                 ==============================
                            Begin MD step =     11
                        ==============================

outcell: Unit cell vectors (Ang):
       10.000000    0.000000    0.000000
        0.000000   10.000000    0.000000
        0.000000    0.000000   10.000000

outcell: Cell vector modules (Ang)   :   10.000000   10.000000   10.000000
outcell: Cell angles (23,13,12) (deg):     90.0000     90.0000     90.0000
outcell: Cell volume (Ang**3)        :   1000.0000

siesta: iscf   Eharris(eV)      E_KS(eV)   FreeEng(eV)   dDmax  Ef(eV)
siesta:    1    -1012.6076    -1012.3387    -1012.3387  0.0220 -4.0523
siesta:    2    -1012.6072    -1012.5837    -1012.5837  0.0274 -4.4933
siesta:    3    -1012.5955    -1012.4780    -1012.4780  0.0036 -4.2551
siesta:    4    -1012.5953    -1012.5884    -1012.5884  0.0006 -4.2787
siesta:    5    -1012.5952    -1012.5996    -1012.5996  0.0004 -4.2815
siesta:    6    -1012.5952    -1012.5957    -1012.5957  0.0001 -4.2792

siesta: E_KS(eV) =            -1012.5954

siesta: Atomic forces (eV/Ang):
----------------------------------------
   Tot    0.000016    0.000004   -0.000006
----------------------------------------
   Max    0.445451
   Res    0.186824    sqrt( Sum f_i^2 / 3N )
----------------------------------------
   Max    0.445451    constrained

Stress-tensor-Voigt (kbar):        5.31        4.83       -0.03        0.00        0.00        0.00
Target enthalpy (eV/cell)    -1012.5954

siesta: Stress tensor (static) (eV/Ang**3):
         0.003315    0.000000    0.000000
         0.000000    0.003017    0.000000
         0.000000    0.000000   -0.000019

siesta: Pressure (static):         -3.37149097  kBar

siesta: Stress tensor (total) (eV/Ang**3):
         0.003314    0.000000    0.000000
         0.000000    0.003017    0.000000
         0.000000    0.000000   -0.000019

siesta: Pressure (total):         -3.37104515  kBar

siesta: Temp_ion =      47.971 K

* Maximum dynamic memory allocated =     5 MB

siesta:                 ==============================
                            Begin MD step =     12
                        ==============================

outcell: Unit cell vectors (Ang):
       10.000000    0.000000    0.000000
        0.000000   10.000000    0.000000
        0.000000    0.000000   10.000000

outcell: Cell vector modules (Ang)   :   10.000000   10.000000   10.000000
outcell: Cell angles (23,13,12) (deg):     90.0000     90.0000     90.0000
outcell: Cell volume (Ang**3)        :   1000.0000

siesta: iscf   Eharris(eV)      E_KS(eV)   FreeEng(eV)   dDmax  Ef(eV)
siesta:    1    -1012.4741    -1012.2106    -1012.2106  0.0075 -4.4349
siesta:    2    -1012.4741    -1012.4739    -1012.4739  0.0028 -4.4588
siesta:    3    -1012.4740    -1012.4357    -1012.4357  0.0011 -4.4516
siesta:    4    -1012.4740    -1012.4664    -1012.4664  0.0005 -4.4486
siesta:    5    -1012.4740    -1012.4741    -1012.4741  0.0001 -4.4477

siesta: E_KS(eV) =            -1012.4741

siesta: Atomic forces (eV/Ang):
----------------------------------------
   Tot    0.000003   -0.000012    0.000003
----------------------------------------
   Max    0.679684
   Res    0.336713    sqrt( Sum f_i^2 / 3N )
----------------------------------------
   Max    0.679684    constrained

Stress-tensor-Voigt (kbar):       12.02       11.71       -0.03        0.01        0.00        0.00
Target enthalpy (eV/cell)    -1012.4741

siesta: Stress tensor (static) (eV/Ang**3):
         0.007510    0.000000    0.000000
         0.000000    0.007311    0.000000
         0.000000    0.000000   -0.000021

siesta: Pressure (static):         -7.90424894  kBar

siesta: Stress tensor (total) (eV/Ang**3):
         0.007503    0.000004    0.000000
         0.000004    0.007310    0.000000
         0.000000    0.000000   -0.000021

siesta: Pressure (total):         -7.89966494  kBar

siesta: Temp_ion =     110.106 K

* Maximum dynamic memory allocated =     5 MB

siesta:                 ==============================
                            Begin MD step =     13
                        ==============================

outcell: Unit cell vectors (Ang):
       10.000000    0.000000    0.000000
        0.000000   10.000000    0.000000
        0.000000    0.000000   10.000000

outcell: Cell vector modules (Ang)   :   10.000000   10.000000   10.000000
outcell: Cell angles (23,13,12) (deg):     90.0000     90.0000     90.0000
outcell: Cell volume (Ang**3)        :   1000.0000

siesta: iscf   Eharris(eV)      E_KS(eV)   FreeEng(eV)   dDmax  Ef(eV)
siesta:    1    -1012.3220    -1012.4995    -1012.4995  0.0527 -5.1874
siesta:    2    -1012.3030    -1012.1584    -1012.1584  0.0670 -4.1212
siesta:    3    -1012.2361    -1012.3586    -1012.3586  0.0053 -4.7017
siesta:    4    -1012.2330    -1012.2579    -1012.2579  0.0021 -4.6286
siesta:    5    -1012.2330    -1012.2354    -1012.2354  0.0017 -4.6187
siesta:    6    -1012.2330    -1012.2339    -1012.2339  0.0003 -4.6243
siesta:    7    -1012.2330    -1012.2335    -1012.2335  0.0001 -4.6243
siesta:    8    -1012.2330    -1012.2333    -1012.2333  0.0000 -4.6244

siesta: E_KS(eV) =            -1012.2331

siesta: Atomic forces (eV/Ang):
----------------------------------------
   Tot    0.000009   -0.000028    0.000000
----------------------------------------
   Max    2.671287
   Res    1.196185    sqrt( Sum f_i^2 / 3N )
----------------------------------------
   Max    2.671287    constrained

Stress-tensor-Voigt (kbar):       11.17       11.38       -0.03        0.00        0.00        0.00
Target enthalpy (eV/cell)    -1012.2331

siesta: Stress tensor (static) (eV/Ang**3):
         0.006971    0.000000    0.000000
         0.000000    0.007100    0.000000
         0.000000    0.000000   -0.000019

siesta: Pressure (static):         -7.50466580  kBar

siesta: Stress tensor (total) (eV/Ang**3):
         0.006971    0.000000    0.000000
         0.000000    0.007100    0.000000
         0.000000    0.000000   -0.000019

siesta: Pressure (total):         -7.50448760  kBar

siesta: Temp_ion =      87.907 K

* Maximum dynamic memory allocated =     5 MB

siesta:                 ==============================
                            Begin MD step =     14
                        ==============================

outcell: Unit cell vectors (Ang):
       10.000000    0.000000    0.000000
        0.000000   10.000000    0.000000
        0.000000    0.000000   10.000000

outcell: Cell vector modules (Ang)   :   10.000000   10.000000   10.000000
outcell: Cell angles (23,13,12) (deg):     90.0000     90.0000     90.0000
outcell: Cell volume (Ang**3)        :   1000.0000

siesta: iscf   Eharris(eV)      E_KS(eV)   FreeEng(eV)   dDmax  Ef(eV)
siesta:    1    -1012.2867    -1011.8145    -1011.8145  0.0719 -4.0577
siesta:    2    -1012.2767    -1012.0170    -1012.0170  0.0910 -5.4322
siesta:    3    -1012.1507    -1011.9868    -1011.9868  0.0062 -4.6637
siesta:    4    -1012.1465    -1012.0955    -1012.0955  0.0028 -4.7178
siesta:    5    -1012.1460    -1012.1608    -1012.1608  0.0020 -4.7609
siesta:    6    -1012.1460    -1012.1506    -1012.1506  0.0004 -4.7545
siesta:    7    -1012.1460    -1012.1486    -1012.1486  0.0002 -4.7535
siesta:    8    -1012.1460    -1012.1474    -1012.1474  0.0001 -4.7532

siesta: E_KS(eV) =            -1012.1470

siesta: Atomic forces (eV/Ang):
----------------------------------------
   Tot    0.000017   -0.000023   -0.000002
----------------------------------------
   Max    2.179371
   Res    0.872189    sqrt( Sum f_i^2 / 3N )
----------------------------------------
   Max    2.179371    constrained

Stress-tensor-Voigt (kbar):       19.64       18.31       -0.04        0.00        0.00        0.00
Target enthalpy (eV/cell)    -1012.1470

siesta: Stress tensor (static) (eV/Ang**3):
         0.012262    0.000000    0.000000
         0.000000    0.011427    0.000000
         0.000000    0.000000   -0.000022

siesta: Pressure (static):        -12.63933679  kBar

siesta: Stress tensor (total) (eV/Ang**3):
         0.012261    0.000001    0.000000
         0.000001    0.011426    0.000000
         0.000000    0.000000   -0.000022

siesta: Pressure (total):        -12.63824133  kBar

siesta: Temp_ion =      29.409 K

* Maximum dynamic memory allocated =     5 MB

siesta:                 ==============================
                            Begin MD step =     15
                        ==============================

outcell: Unit cell vectors (Ang):
       10.000000    0.000000    0.000000
        0.000000   10.000000    0.000000
        0.000000    0.000000   10.000000

outcell: Cell vector modules (Ang)   :   10.000000   10.000000   10.000000
outcell: Cell angles (23,13,12) (deg):     90.0000     90.0000     90.0000
outcell: Cell volume (Ang**3)        :   1000.0000

siesta: iscf   Eharris(eV)      E_KS(eV)   FreeEng(eV)   dDmax  Ef(eV)
siesta:    1    -1012.1025    -1012.5833    -1012.5833  0.0119 -4.7246
siesta:    2    -1012.1013    -1012.1004    -1012.1004  0.0056 -4.7723
siesta:    3    -1012.1010    -1012.1636    -1012.1636  0.0035 -4.7578
siesta:    4    -1012.1009    -1012.1179    -1012.1179  0.0014 -4.7485
siesta:    5    -1012.1009    -1012.1056    -1012.1056  0.0002 -4.7458
siesta:    6    -1012.1009    -1012.1037    -1012.1037  0.0001 -4.7462
siesta:    7    -1012.1009    -1012.1013    -1012.1013  0.0000 -4.7469

siesta: E_KS(eV) =            -1012.1009

siesta: Atomic forces (eV/Ang):
----------------------------------------
   Tot    0.000016   -0.000057    0.000002
----------------------------------------
   Max    1.075297
   Res    0.623388    sqrt( Sum f_i^2 / 3N )
----------------------------------------
   Max    1.075297    constrained

Stress-tensor-Voigt (kbar):       21.91       21.51       -0.03        0.01        0.00        0.00
Target enthalpy (eV/cell)    -1012.1009

siesta: Stress tensor (static) (eV/Ang**3):
         0.013684    0.000000    0.000000
         0.000000    0.013434    0.000000
         0.000000    0.000000   -0.000020

siesta: Pressure (static):        -14.47219938  kBar

siesta: Stress tensor (total) (eV/Ang**3):
         0.013676    0.000007    0.000000
         0.000007    0.013427    0.000000
         0.000000    0.000000   -0.000020

siesta: Pressure (total):        -14.46425307  kBar

siesta: Temp_ion =      53.239 K

* Maximum dynamic memory allocated =     5 MB

siesta:                 ==============================
                            Begin MD step =     16
                        ==============================

outcell: Unit cell vectors (Ang):
       10.000000    0.000000    0.000000
        0.000000   10.000000    0.000000
        0.000000    0.000000   10.000000

outcell: Cell vector modules (Ang)   :   10.000000   10.000000   10.000000
outcell: Cell angles (23,13,12) (deg):     90.0000     90.0000     90.0000
outcell: Cell volume (Ang**3)        :   1000.0000

siesta: iscf   Eharris(eV)      E_KS(eV)   FreeEng(eV)   dDmax  Ef(eV)
siesta:    1    -1012.5248    -1013.4495    -1013.4495  0.0694 -5.2105
siesta:    2    -1012.5066    -1012.2953    -1012.2953  0.0826 -3.8960
siesta:    3    -1012.4051    -1012.8605    -1012.8605  0.0154 -4.5840
siesta:    4    -1012.4027    -1012.4361    -1012.4361  0.0024 -4.5078
siesta:    5    -1012.4027    -1012.4052    -1012.4052  0.0016 -4.5098
siesta:    6    -1012.4027    -1012.4029    -1012.4029  0.0005 -4.5138
siesta:    7    -1012.4026    -1012.4024    -1012.4024  0.0002 -4.5138
siesta:    8    -1012.4026    -1012.4018    -1012.4018  0.0001 -4.5139

siesta: E_KS(eV) =            -1012.4018

siesta: Atomic forces (eV/Ang):
----------------------------------------
   Tot    0.000032   -0.000089   -0.000004
----------------------------------------
   Max    1.964093
   Res    0.893585    sqrt( Sum f_i^2 / 3N )
----------------------------------------
   Max    1.964093    constrained

Stress-tensor-Voigt (kbar):        8.24        9.76       -0.03        0.00        0.00        0.00
Target enthalpy (eV/cell)    -1012.4018

siesta: Stress tensor (static) (eV/Ang**3):
         0.005153    0.000000    0.000000
         0.000000    0.006091    0.000000
         0.000000    0.000000   -0.000018

siesta: Pressure (static):         -5.99549882  kBar

siesta: Stress tensor (total) (eV/Ang**3):
         0.005145    0.000002    0.000000
         0.000002    0.006091    0.000000
         0.000000    0.000000   -0.000018

siesta: Pressure (total):         -5.99078228  kBar

siesta: Temp_ion =     178.997 K

* Maximum dynamic memory allocated =     5 MB

siesta:                 ==============================
                            Begin MD step =     17
                        ==============================

outcell: Unit cell vectors (Ang):
       10.000000    0.000000    0.000000
        0.000000   10.000000    0.000000
        0.000000    0.000000   10.000000

outcell: Cell vector modules (Ang)   :   10.000000   10.000000   10.000000
outcell: Cell angles (23,13,12) (deg):     90.0000     90.0000     90.0000
outcell: Cell volume (Ang**3)        :   1000.0000

siesta: iscf   Eharris(eV)      E_KS(eV)   FreeEng(eV)   dDmax  Ef(eV)
siesta:    1    -1012.6782    -1012.2949    -1012.2949  0.0590 -3.6805
siesta:    2    -1012.6669    -1012.5118    -1012.5118  0.0698 -4.8156
siesta:    3    -1012.5928    -1012.4508    -1012.4508  0.0064 -4.1905
siesta:    4    -1012.5900    -1012.5538    -1012.5538  0.0026 -4.2446
siesta:    5    -1012.5898    -1012.5947    -1012.5947  0.0016 -4.2715
siesta:    6    -1012.5898    -1012.5959    -1012.5959  0.0006 -4.2704
siesta:    7    -1012.5898    -1012.5921    -1012.5921  0.0003 -4.2673
siesta:    8    -1012.5898    -1012.5906    -1012.5906  0.0001 -4.2669
siesta:    9    -1012.5898    -1012.5909    -1012.5909  0.0000 -4.2678

siesta: E_KS(eV) =            -1012.5907

siesta: Atomic forces (eV/Ang):
----------------------------------------
   Tot    0.000070   -0.000138   -0.000017
----------------------------------------
   Max    0.909266
   Res    0.353577    sqrt( Sum f_i^2 / 3N )
----------------------------------------
   Max    0.909266    constrained

Stress-tensor-Voigt (kbar):        3.09        2.97       -0.03        0.01        0.00        0.00
Target enthalpy (eV/cell)    -1012.5907

siesta: Stress tensor (static) (eV/Ang**3):
         0.001945    0.000000    0.000000
         0.000000    0.001858    0.000000
         0.000000    0.000000   -0.000019

siesta: Pressure (static):         -2.02120543  kBar

siesta: Stress tensor (total) (eV/Ang**3):
         0.001926    0.000009    0.000000
         0.000009    0.001854    0.000000
         0.000000    0.000000   -0.000019

siesta: Pressure (total):         -2.00880351  kBar

siesta: Temp_ion =      93.275 K

* Maximum dynamic memory allocated =     5 MB

siesta:                 ==============================
                            Begin MD step =     18
                        ==============================

outcell: Unit cell vectors (Ang):
       10.000000    0.000000    0.000000
        0.000000   10.000000    0.000000
        0.000000    0.000000   10.000000

outcell: Cell vector modules (Ang)   :   10.000000   10.000000   10.000000
outcell: Cell angles (23,13,12) (deg):     90.0000     90.0000     90.0000
outcell: Cell volume (Ang**3)        :   1000.0000

siesta: iscf   Eharris(eV)      E_KS(eV)   FreeEng(eV)   dDmax  Ef(eV)
siesta:    1    -1012.6119    -1012.0639    -1012.0639  0.0196 -4.1346
siesta:    2    -1012.6107    -1012.6095    -1012.6095  0.0083 -4.1970
siesta:    3    -1012.6102    -1012.5068    -1012.5068  0.0032 -4.1757
siesta:    4    -1012.6102    -1012.5897    -1012.5897  0.0011 -4.1667
siesta:    5    -1012.6101    -1012.6117    -1012.6117  0.0002 -4.1661
siesta:    6    -1012.6102    -1012.6113    -1012.6113  0.0001 -4.1667
siesta:    7    -1012.6101    -1012.6096    -1012.6096  0.0000 -4.1676

siesta: E_KS(eV) =            -1012.6100

siesta: Atomic forces (eV/Ang):
----------------------------------------
   Tot    0.000034   -0.000108   -0.000015
----------------------------------------
   Max    0.310885
   Res    0.145861    sqrt( Sum f_i^2 / 3N )
----------------------------------------
   Max    0.310885    constrained

Stress-tensor-Voigt (kbar):        1.89        2.78       -0.03        0.00        0.00        0.00
Target enthalpy (eV/cell)    -1012.6100

siesta: Stress tensor (static) (eV/Ang**3):
         0.001177    0.000000    0.000000
         0.000000    0.001733    0.000000
         0.000000    0.000000   -0.000019

siesta: Pressure (static):         -1.54418919  kBar

siesta: Stress tensor (total) (eV/Ang**3):
         0.001177    0.000000    0.000000
         0.000000    0.001733    0.000000
         0.000000    0.000000   -0.000019

siesta: Pressure (total):         -1.54408533  kBar

siesta: Temp_ion =      12.134 K

* Maximum dynamic memory allocated =     5 MB

siesta:                 ==============================
                            Begin MD step =     19
                        ==============================

outcell: Unit cell vectors (Ang):
       10.000000    0.000000    0.000000
        0.000000   10.000000    0.000000
        0.000000    0.000000   10.000000

outcell: Cell vector modules (Ang)   :   10.000000   10.000000   10.000000
outcell: Cell angles (23,13,12) (deg):     90.0000     90.0000     90.0000
outcell: Cell volume (Ang**3)        :   1000.0000

siesta: iscf   Eharris(eV)      E_KS(eV)   FreeEng(eV)   dDmax  Ef(eV)
siesta:    1    -1012.6424    -1012.5674    -1012.5674  0.0277 -4.4220
siesta:    2    -1012.6392    -1012.6032    -1012.6032  0.0344 -3.8653
siesta:    3    -1012.6223    -1012.5957    -1012.5957  0.0021 -4.1751
siesta:    4    -1012.6215    -1012.6215    -1012.6215  0.0009 -4.1325
siesta:    5    -1012.6215    -1012.6235    -1012.6235  0.0007 -4.1305
siesta:    6    -1012.6214    -1012.6220    -1012.6220  0.0001 -4.1330

siesta: E_KS(eV) =            -1012.6218

siesta: Atomic forces (eV/Ang):
----------------------------------------
   Tot    0.000001   -0.000091    0.000061
----------------------------------------
   Max    0.146772
   Res    0.064200    sqrt( Sum f_i^2 / 3N )
----------------------------------------
   Max    0.146772    constrained

Stress-tensor-Voigt (kbar):       -0.46        0.35       -0.03        0.00        0.00        0.00
Target enthalpy (eV/cell)    -1012.6218

siesta: Stress tensor (static) (eV/Ang**3):
        -0.000289    0.000000    0.000000
         0.000000    0.000220    0.000000
         0.000000    0.000000   -0.000017

siesta: Pressure (static):          0.04648617  kBar

siesta: Stress tensor (total) (eV/Ang**3):
        -0.000289    0.000000    0.000000
         0.000000    0.000219    0.000000
         0.000000    0.000000   -0.000017

siesta: Pressure (total):          0.04673439  kBar

siesta: Temp_ion =       3.119 K

* Maximum dynamic memory allocated =     5 MB

siesta:                 ==============================
                            Begin MD step =     20
                        ==============================

outcell: Unit cell vectors (Ang):
       10.000000    0.000000    0.000000
        0.000000   10.000000    0.000000
        0.000000    0.000000   10.000000

outcell: Cell vector modules (Ang)   :   10.000000   10.000000   10.000000
outcell: Cell angles (23,13,12) (deg):     90.0000     90.0000     90.0000
outcell: Cell volume (Ang**3)        :   1000.0000

siesta: iscf   Eharris(eV)      E_KS(eV)   FreeEng(eV)   dDmax  Ef(eV)
siesta:    1    -1012.6240    -1012.5134    -1012.5134  0.0097 -4.0152
siesta:    2    -1012.6239    -1012.6197    -1012.6197  0.0115 -4.2057
siesta:    3    -1012.6218    -1012.5726    -1012.5726  0.0016 -4.1036
siesta:    4    -1012.6218    -1012.6186    -1012.6186  0.0003 -4.1143
siesta:    5    -1012.6218    -1012.6233    -1012.6233  0.0002 -4.1152
siesta:    6    -1012.6218    -1012.6224    -1012.6224  0.0001 -4.1146

siesta: E_KS(eV) =            -1012.6216

siesta: Atomic forces (eV/Ang):
----------------------------------------
   Tot    0.000001   -0.000122   -0.000085
----------------------------------------
   Max    0.122605
   Res    0.059059    sqrt( Sum f_i^2 / 3N )
----------------------------------------
   Max    0.122605    constrained

Stress-tensor-Voigt (kbar):       -1.03       -0.70       -0.03        0.00        0.00        0.00
Target enthalpy (eV/cell)    -1012.6216

siesta: Stress tensor (static) (eV/Ang**3):
        -0.000641    0.000000    0.000000
         0.000000   -0.000435    0.000000
         0.000000    0.000000   -0.000019

siesta: Pressure (static):          0.58475035  kBar

siesta: Stress tensor (total) (eV/Ang**3):
        -0.000641    0.000000    0.000000
         0.000000   -0.000436    0.000000
         0.000000    0.000000   -0.000019

siesta: Pressure (total):          0.58533701  kBar

siesta: Temp_ion =       1.236 K

* Maximum dynamic memory allocated =     5 MB

siesta:                 ==============================
                            Begin MD step =     21
                        ==============================

outcell: Unit cell vectors (Ang):
       10.000000    0.000000    0.000000
        0.000000   10.000000    0.000000
        0.000000    0.000000   10.000000

outcell: Cell vector modules (Ang)   :   10.000000   10.000000   10.000000
outcell: Cell angles (23,13,12) (deg):     90.0000     90.0000     90.0000
outcell: Cell volume (Ang**3)        :   1000.0000

siesta: iscf   Eharris(eV)      E_KS(eV)   FreeEng(eV)   dDmax  Ef(eV)
siesta:    1    -1012.6232    -1012.5568    -1012.5568  0.0080 -4.0247
siesta:    2    -1012.6231    -1012.6206    -1012.6206  0.0095 -4.1729
siesta:    3    -1012.6218    -1012.5919    -1012.5919  0.0011 -4.0925
siesta:    4    -1012.6218    -1012.6212    -1012.6212  0.0002 -4.1016
siesta:    5    -1012.6218    -1012.6225    -1012.6225  0.0001 -4.1017

siesta: E_KS(eV) =            -1012.6219

siesta: Atomic forces (eV/Ang):
----------------------------------------
   Tot    0.000044   -0.000121   -0.000038
----------------------------------------
   Max    0.266221
   Res    0.094691    sqrt( Sum f_i^2 / 3N )
----------------------------------------
   Max    0.266221    constrained

Stress-tensor-Voigt (kbar):       -0.34       -0.43       -0.03        0.00        0.00        0.00
Target enthalpy (eV/cell)    -1012.6219

siesta: Stress tensor (static) (eV/Ang**3):
        -0.000210    0.000000    0.000000
         0.000000   -0.000266    0.000000
         0.000000    0.000000   -0.000020

siesta: Pressure (static):          0.26537443  kBar

siesta: Stress tensor (total) (eV/Ang**3):
        -0.000211    0.000000    0.000000
         0.000000   -0.000266    0.000000
         0.000000    0.000000   -0.000020

siesta: Pressure (total):          0.26553427  kBar

siesta: Temp_ion =       1.215 K

* Maximum dynamic memory allocated =     5 MB

siesta:                 ==============================
                            Begin MD step =     22
                        ==============================

outcell: Unit cell vectors (Ang):
       10.000000    0.000000    0.000000
        0.000000   10.000000    0.000000
        0.000000    0.000000   10.000000

outcell: Cell vector modules (Ang)   :   10.000000   10.000000   10.000000
outcell: Cell angles (23,13,12) (deg):     90.0000     90.0000     90.0000
outcell: Cell volume (Ang**3)        :   1000.0000

siesta: iscf   Eharris(eV)      E_KS(eV)   FreeEng(eV)   dDmax  Ef(eV)
siesta:    1    -1012.6251    -1012.6605    -1012.6605  0.0085 -4.1876
siesta:    2    -1012.6248    -1012.6211    -1012.6211  0.0109 -4.0074
siesta:    3    -1012.6231    -1012.6406    -1012.6406  0.0009 -4.1064
siesta:    4    -1012.6230    -1012.6229    -1012.6229  0.0003 -4.0931
siesta:    5    -1012.6230    -1012.6230    -1012.6230  0.0001 -4.0941
siesta:    6    -1012.6230    -1012.6230    -1012.6230  0.0000 -4.0943

siesta: E_KS(eV) =            -1012.6230

siesta: Atomic forces (eV/Ang):
----------------------------------------
   Tot    0.000050   -0.000141   -0.000005
----------------------------------------
   Max    0.195701
   Res    0.053217    sqrt( Sum f_i^2 / 3N )
----------------------------------------
   Max    0.195701    constrained

Stress-tensor-Voigt (kbar):       -0.83       -0.93       -0.03        0.00        0.00        0.00
Target enthalpy (eV/cell)    -1012.6230

siesta: Stress tensor (static) (eV/Ang**3):
        -0.000519    0.000000    0.000000
         0.000000   -0.000577    0.000000
         0.000000    0.000000   -0.000018

siesta: Pressure (static):          0.59523510  kBar

siesta: Stress tensor (total) (eV/Ang**3):
        -0.000519    0.000000    0.000000
         0.000000   -0.000577    0.000000
         0.000000    0.000000   -0.000018

siesta: Pressure (total):          0.59549955  kBar

siesta: Temp_ion =       3.277 K

* Maximum dynamic memory allocated =     5 MB

siesta:                 ==============================
                            Begin MD step =     23
                        ==============================

outcell: Unit cell vectors (Ang):
       10.000000    0.000000    0.000000
        0.000000   10.000000    0.000000
        0.000000    0.000000   10.000000

outcell: Cell vector modules (Ang)   :   10.000000   10.000000   10.000000
outcell: Cell angles (23,13,12) (deg):     90.0000     90.0000     90.0000
outcell: Cell volume (Ang**3)        :   1000.0000

siesta: iscf   Eharris(eV)      E_KS(eV)   FreeEng(eV)   dDmax  Ef(eV)
siesta:    1    -1012.6174    -1012.6299    -1012.6299  0.0061 -4.1376
siesta:    2    -1012.6173    -1012.6163    -1012.6163  0.0053 -4.0527
siesta:    3    -1012.6168    -1012.6228    -1012.6228  0.0009 -4.0984
siesta:    4    -1012.6168    -1012.6187    -1012.6187  0.0004 -4.0940
siesta:    5    -1012.6168    -1012.6169    -1012.6169  0.0001 -4.0935
siesta:    6    -1012.6168    -1012.6168    -1012.6168  0.0001 -4.0934

siesta: E_KS(eV) =            -1012.6168

siesta: Atomic forces (eV/Ang):
----------------------------------------
   Tot    0.000048   -0.000155   -0.000009
----------------------------------------
   Max    0.241629
   Res    0.118961    sqrt( Sum f_i^2 / 3N )
----------------------------------------
   Max    0.241629    constrained

Stress-tensor-Voigt (kbar):       -1.65       -2.54       -0.02        0.00        0.00        0.00
Target enthalpy (eV/cell)    -1012.6168

siesta: Stress tensor (static) (eV/Ang**3):
        -0.001030    0.000000    0.000000
         0.000000   -0.001586    0.000000
         0.000000    0.000000   -0.000014

siesta: Pressure (static):          1.40483365  kBar

siesta: Stress tensor (total) (eV/Ang**3):
        -0.001030    0.000000    0.000000
         0.000000   -0.001588    0.000000
         0.000000    0.000000   -0.000014

siesta: Pressure (total):          1.40573691  kBar

siesta: Temp_ion =      13.773 K

* Maximum dynamic memory allocated =     5 MB

siesta:                 ==============================
                            Begin MD step =     24
                        ==============================

outcell: Unit cell vectors (Ang):
       10.000000    0.000000    0.000000
        0.000000   10.000000    0.000000
        0.000000    0.000000   10.000000

outcell: Cell vector modules (Ang)   :   10.000000   10.000000   10.000000
outcell: Cell angles (23,13,12) (deg):     90.0000     90.0000     90.0000
outcell: Cell volume (Ang**3)        :   1000.0000

siesta: iscf   Eharris(eV)      E_KS(eV)   FreeEng(eV)   dDmax  Ef(eV)
siesta:    1    -1012.6145    -1012.4329    -1012.4329  0.0243 -3.8568
siesta:    2    -1012.6143    -1012.5861    -1012.5861  0.0294 -4.3375
siesta:    3    -1012.6003    -1012.5224    -1012.5224  0.0033 -4.0753
siesta:    4    -1012.5999    -1012.5869    -1012.5869  0.0013 -4.1000
siesta:    5    -1012.5999    -1012.6014    -1012.6014  0.0006 -4.1049
siesta:    6    -1012.5999    -1012.6017    -1012.6017  0.0003 -4.1038
siesta:    7    -1012.5999    -1012.5997    -1012.5997  0.0001 -4.1021
siesta:    8    -1012.5999    -1012.6000    -1012.6000  0.0001 -4.1024

siesta: E_KS(eV) =            -1012.6003

siesta: Atomic forces (eV/Ang):
----------------------------------------
   Tot    0.000128   -0.000365    0.000022
----------------------------------------
   Max    0.443998
   Res    0.233589    sqrt( Sum f_i^2 / 3N )
----------------------------------------
   Max    0.443998    constrained

Stress-tensor-Voigt (kbar):        1.53       -0.63       -0.02        0.00        0.00        0.00
Target enthalpy (eV/cell)    -1012.6003

siesta: Stress tensor (static) (eV/Ang**3):
         0.000956    0.000001    0.000000
         0.000001   -0.000392    0.000000
         0.000000    0.000000   -0.000014

siesta: Pressure (static):         -0.29324702  kBar

siesta: Stress tensor (total) (eV/Ang**3):
         0.000954   -0.000001    0.000000
        -0.000001   -0.000395    0.000000
         0.000000    0.000000   -0.000014

siesta: Pressure (total):         -0.29081388  kBar

siesta: Temp_ion =      84.402 K

* Maximum dynamic memory allocated =     5 MB

siesta:                 ==============================
                            Begin MD step =     25
                        ==============================

outcell: Unit cell vectors (Ang):
       10.000000    0.000000    0.000000
        0.000000   10.000000    0.000000
        0.000000    0.000000   10.000000

outcell: Cell vector modules (Ang)   :   10.000000   10.000000   10.000000
outcell: Cell angles (23,13,12) (deg):     90.0000     90.0000     90.0000
outcell: Cell volume (Ang**3)        :   1000.0000

siesta: iscf   Eharris(eV)      E_KS(eV)   FreeEng(eV)   dDmax  Ef(eV)
siesta:    1    -1012.5446    -1012.5832    -1012.5832  0.0169 -4.3401
siesta:    2    -1012.5447    -1012.5270    -1012.5270  0.0230 -3.9870
siesta:    3    -1012.5357    -1012.5556    -1012.5556  0.0046 -4.1714
siesta:    4    -1012.5355    -1012.5384    -1012.5384  0.0019 -4.1540
siesta:    5    -1012.5355    -1012.5355    -1012.5355  0.0004 -4.1578
siesta:    6    -1012.5355    -1012.5354    -1012.5354  0.0003 -4.1580
siesta:    7    -1012.5354    -1012.5354    -1012.5354  0.0000 -4.1582

siesta: E_KS(eV) =            -1012.5354

siesta: Atomic forces (eV/Ang):
----------------------------------------
   Tot   -0.000026   -0.000542    0.000046
----------------------------------------
   Max    0.385494
   Res    0.190252    sqrt( Sum f_i^2 / 3N )
----------------------------------------
   Max    0.385494    constrained

Stress-tensor-Voigt (kbar):        1.75        1.25       -0.02       -0.01        0.00        0.00
Target enthalpy (eV/cell)    -1012.5354

siesta: Stress tensor (static) (eV/Ang**3):
         0.001097    0.000000    0.000000
         0.000000    0.000795    0.000000
         0.000000    0.000000   -0.000010

siesta: Pressure (static):         -1.00519416  kBar

siesta: Stress tensor (total) (eV/Ang**3):
         0.001094   -0.000007    0.000000
        -0.000007    0.000780    0.000000
         0.000000    0.000000   -0.000010

siesta: Pressure (total):         -0.99554844  kBar

siesta: Temp_ion =     179.642 K

* Maximum dynamic memory allocated =     5 MB

siesta:                 ==============================
                            Begin MD step =     26
                        ==============================

outcell: Unit cell vectors (Ang):
       10.000000    0.000000    0.000000
        0.000000   10.000000    0.000000
        0.000000    0.000000   10.000000

outcell: Cell vector modules (Ang)   :   10.000000   10.000000   10.000000
outcell: Cell angles (23,13,12) (deg):     90.0000     90.0000     90.0000
outcell: Cell volume (Ang**3)        :   1000.0000

siesta: iscf   Eharris(eV)      E_KS(eV)   FreeEng(eV)   dDmax  Ef(eV)
siesta:    1    -1012.4139    -1012.5324    -1012.5324  0.0251 -4.4379
siesta:    2    -1012.4114    -1012.3899    -1012.3899  0.0259 -4.0131
siesta:    3    -1012.4015    -1012.4620    -1012.4620  0.0037 -4.2432
siesta:    4    -1012.4010    -1012.4154    -1012.4154  0.0013 -4.2177
siesta:    5    -1012.4010    -1012.4035    -1012.4035  0.0004 -4.2138
siesta:    6    -1012.4010    -1012.4001    -1012.4001  0.0003 -4.2124
siesta:    7    -1012.4010    -1012.4003    -1012.4003  0.0001 -4.2125

siesta: E_KS(eV) =            -1012.4005

siesta: Atomic forces (eV/Ang):
----------------------------------------
   Tot    0.000177   -0.000820   -0.000075
----------------------------------------
   Max    1.652299
   Res    0.506605    sqrt( Sum f_i^2 / 3N )
----------------------------------------
   Max    1.652299    constrained

Stress-tensor-Voigt (kbar):       -2.07        0.34       -0.03        0.00        0.00        0.00
Target enthalpy (eV/cell)    -1012.4005

siesta: Stress tensor (static) (eV/Ang**3):
        -0.001295   -0.000001    0.000000
        -0.000001    0.000245    0.000000
         0.000000    0.000000   -0.000016

siesta: Pressure (static):          0.56926117  kBar

siesta: Stress tensor (total) (eV/Ang**3):
        -0.001295    0.000001    0.000000
         0.000001    0.000215    0.000000
         0.000000    0.000000   -0.000016

siesta: Pressure (total):          0.58526941  kBar

siesta: Temp_ion =      85.291 K

* Maximum dynamic memory allocated =     5 MB

siesta:                 ==============================
                            Begin MD step =     27
                        ==============================

outcell: Unit cell vectors (Ang):
       10.000000    0.000000    0.000000
        0.000000   10.000000    0.000000
        0.000000    0.000000   10.000000

outcell: Cell vector modules (Ang)   :   10.000000   10.000000   10.000000
outcell: Cell angles (23,13,12) (deg):     90.0000     90.0000     90.0000
outcell: Cell volume (Ang**3)        :   1000.0000

siesta: iscf   Eharris(eV)      E_KS(eV)   FreeEng(eV)   dDmax  Ef(eV)
siesta:    1    -1012.4626    -1012.1097    -1012.1097  0.0489 -3.7488
siesta:    2    -1012.4679    -1012.3420    -1012.3420  0.0612 -4.6873
siesta:    3    -1012.4032    -1012.2627    -1012.2627  0.0075 -4.1688
siesta:    4    -1012.4015    -1012.3557    -1012.3557  0.0034 -4.2153
siesta:    5    -1012.4013    -1012.4005    -1012.4005  0.0014 -4.2305
siesta:    6    -1012.4013    -1012.4051    -1012.4051  0.0008 -4.2280
siesta:    7    -1012.4013    -1012.4016    -1012.4016  0.0004 -4.2242
siesta:    8    -1012.4013    -1012.4017    -1012.4017  0.0002 -4.2251
siesta:    9    -1012.4013    -1012.4022    -1012.4022  0.0001 -4.2264

siesta: E_KS(eV) =            -1012.4020

siesta: Atomic forces (eV/Ang):
----------------------------------------
   Tot   -0.000127   -0.001001   -0.000057
----------------------------------------
   Max    0.904118
   Res    0.327009    sqrt( Sum f_i^2 / 3N )
----------------------------------------
   Max    0.904118    constrained

Stress-tensor-Voigt (kbar):        1.33        4.94       -0.02        0.00        0.00        0.00
Target enthalpy (eV/cell)    -1012.4020

siesta: Stress tensor (static) (eV/Ang**3):
         0.000832    0.000001    0.000000
         0.000001    0.003087    0.000000
         0.000000    0.000000   -0.000013

siesta: Pressure (static):         -2.08561272  kBar

siesta: Stress tensor (total) (eV/Ang**3):
         0.000832    0.000001    0.000000
         0.000001    0.003084    0.000000
         0.000000    0.000000   -0.000013

siesta: Pressure (total):         -2.08394696  kBar

siesta: Temp_ion =      18.747 K

* Maximum dynamic memory allocated =     5 MB

siesta:                 ==============================
                            Begin MD step =     28
                        ==============================

outcell: Unit cell vectors (Ang):
       10.000000    0.000000    0.000000
        0.000000   10.000000    0.000000
        0.000000    0.000000   10.000000

outcell: Cell vector modules (Ang)   :   10.000000   10.000000   10.000000
outcell: Cell angles (23,13,12) (deg):     90.0000     90.0000     90.0000
outcell: Cell volume (Ang**3)        :   1000.0000

siesta: iscf   Eharris(eV)      E_KS(eV)   FreeEng(eV)   dDmax  Ef(eV)
siesta:    1    -1012.4553    -1012.6153    -1012.6153  0.0312 -4.5005
siesta:    2    -1012.4538    -1012.4147    -1012.4147  0.0365 -3.9396
siesta:    3    -1012.4346    -1012.5154    -1012.5154  0.0045 -4.2405
siesta:    4    -1012.4341    -1012.4434    -1012.4434  0.0012 -4.2112
siesta:    5    -1012.4341    -1012.4369    -1012.4369  0.0008 -4.2112
siesta:    6    -1012.4341    -1012.4336    -1012.4336  0.0003 -4.2108
siesta:    7    -1012.4341    -1012.4334    -1012.4334  0.0001 -4.2105

siesta: E_KS(eV) =            -1012.4334

siesta: Atomic forces (eV/Ang):
----------------------------------------
   Tot    0.000225    0.002389   -0.000038
----------------------------------------
   Max    0.912989
   Res    0.294303    sqrt( Sum f_i^2 / 3N )
----------------------------------------
   Max    0.912989    constrained

Stress-tensor-Voigt (kbar):       -1.20        5.89       -0.03        0.00        0.00        0.00
Target enthalpy (eV/cell)    -1012.4334

siesta: Stress tensor (static) (eV/Ang**3):
        -0.000751    0.000000    0.000000
         0.000000    0.003682    0.000000
         0.000000    0.000000   -0.000018

siesta: Pressure (static):         -1.55550852  kBar

siesta: Stress tensor (total) (eV/Ang**3):
        -0.000751    0.000000    0.000000
         0.000000    0.003678    0.000000
         0.000000    0.000000   -0.000018

siesta: Pressure (total):         -1.55340441  kBar

siesta: Temp_ion =      21.363 K

* Maximum dynamic memory allocated =     5 MB

siesta:                 ==============================
                            Begin MD step =     29
                        ==============================

outcell: Unit cell vectors (Ang):
       10.000000    0.000000    0.000000
        0.000000   10.000000    0.000000
        0.000000    0.000000   10.000000

outcell: Cell vector modules (Ang)   :   10.000000   10.000000   10.000000
outcell: Cell angles (23,13,12) (deg):     90.0000     90.0000     90.0000
outcell: Cell volume (Ang**3)        :   1000.0000

siesta: iscf   Eharris(eV)      E_KS(eV)   FreeEng(eV)   dDmax  Ef(eV)
siesta:    1    -1012.4726    -1012.5576    -1012.5576  0.0277 -4.2812
siesta:    2    -1012.4723    -1012.4684    -1012.4684  0.0115 -4.0994
siesta:    3    -1012.4704    -1012.4967    -1012.4967  0.0085 -4.1763
siesta:    4    -1012.4703    -1012.4702    -1012.4702  0.0004 -4.1850
siesta:    5    -1012.4703    -1012.4702    -1012.4702  0.0002 -4.1858
siesta:    6    -1012.4703    -1012.4703    -1012.4703  0.0001 -4.1859

siesta: E_KS(eV) =            -1012.4703

siesta: Atomic forces (eV/Ang):
----------------------------------------
   Tot    0.000278   -0.001210   -0.000076
----------------------------------------
   Max    1.379864
   Res    0.361053    sqrt( Sum f_i^2 / 3N )
----------------------------------------
   Max    1.379864    constrained

Stress-tensor-Voigt (kbar):       -5.29        4.58       -0.02       -0.01        0.00        0.00
Target enthalpy (eV/cell)    -1012.4703

siesta: Stress tensor (static) (eV/Ang**3):
        -0.003293   -0.000001    0.000000
        -0.000001    0.002868    0.000000
         0.000000    0.000000   -0.000013

siesta: Pressure (static):          0.23369788  kBar

siesta: Stress tensor (total) (eV/Ang**3):
        -0.003299   -0.000008    0.000000
        -0.000008    0.002860    0.000000
         0.000000    0.000000   -0.000013

siesta: Pressure (total):          0.24121474  kBar

siesta: Temp_ion =      38.295 K

* Maximum dynamic memory allocated =     5 MB

siesta:                 ==============================
                            Begin MD step =     30
                        ==============================

outcell: Unit cell vectors (Ang):
       10.000000    0.000000    0.000000
        0.000000   10.000000    0.000000
        0.000000    0.000000   10.000000

outcell: Cell vector modules (Ang)   :   10.000000   10.000000   10.000000
outcell: Cell angles (23,13,12) (deg):     90.0000     90.0000     90.0000
outcell: Cell volume (Ang**3)        :   1000.0000

siesta: iscf   Eharris(eV)      E_KS(eV)   FreeEng(eV)   dDmax  Ef(eV)
siesta:    1    -1012.5329    -1012.3808    -1012.3808  0.0265 -3.8780
siesta:    2    -1012.5322    -1012.4976    -1012.4976  0.0339 -4.4112
siesta:    3    -1012.5149    -1012.4537    -1012.4537  0.0119 -4.1251
siesta:    4    -1012.5146    -1012.5078    -1012.5078  0.0014 -4.1509
siesta:    5    -1012.5145    -1012.5155    -1012.5155  0.0005 -4.1537
siesta:    6    -1012.5145    -1012.5155    -1012.5155  0.0003 -4.1522
siesta:    7    -1012.5145    -1012.5144    -1012.5144  0.0001 -4.1505
siesta:    8    -1012.5146    -1012.5147    -1012.5147  0.0001 -4.1509

siesta: E_KS(eV) =            -1012.5148

siesta: Atomic forces (eV/Ang):
----------------------------------------
   Tot    0.000029   -0.001215   -0.000120
----------------------------------------
   Max    0.797766
   Res    0.308774    sqrt( Sum f_i^2 / 3N )
----------------------------------------
   Max    0.797766    constrained

Stress-tensor-Voigt (kbar):       -4.76        5.87       -0.03       -0.01        0.00        0.00
Target enthalpy (eV/cell)    -1012.5148

siesta: Stress tensor (static) (eV/Ang**3):
        -0.002971    0.000000    0.000000
         0.000000    0.003679    0.000000
         0.000000    0.000000   -0.000016

siesta: Pressure (static):         -0.36949878  kBar

siesta: Stress tensor (total) (eV/Ang**3):
        -0.002974   -0.000007    0.000000
        -0.000007    0.003663    0.000000
         0.000000    0.000000   -0.000016

siesta: Pressure (total):         -0.35919332  kBar

siesta: Temp_ion =      55.910 K

* Maximum dynamic memory allocated =     5 MB

siesta:                 ==============================
                            Begin MD step =     31
                        ==============================

outcell: Unit cell vectors (Ang):
       10.000000    0.000000    0.000000
        0.000000   10.000000    0.000000
        0.000000    0.000000   10.000000

outcell: Cell vector modules (Ang)   :   10.000000   10.000000   10.000000
outcell: Cell angles (23,13,12) (deg):     90.0000     90.0000     90.0000
outcell: Cell volume (Ang**3)        :   1000.0000

siesta: iscf   Eharris(eV)      E_KS(eV)   FreeEng(eV)   dDmax  Ef(eV)
siesta:    1    -1012.5450    -1012.5953    -1012.5953  0.0114 -4.2176
siesta:    2    -1012.5445    -1012.5400    -1012.5400  0.0128 -4.0252
siesta:    3    -1012.5424    -1012.5656    -1012.5656  0.0014 -4.1269
siesta:    4    -1012.5423    -1012.5442    -1012.5442  0.0007 -4.1186
siesta:    5    -1012.5423    -1012.5425    -1012.5425  0.0001 -4.1184
siesta:    6    -1012.5423    -1012.5421    -1012.5421  0.0000 -4.1182

siesta: E_KS(eV) =            -1012.5422

siesta: Atomic forces (eV/Ang):
----------------------------------------
   Tot    0.000327   -0.001414   -0.000006
----------------------------------------
   Max    0.752999
   Res    0.284232    sqrt( Sum f_i^2 / 3N )
----------------------------------------
   Max    0.752999    constrained

Stress-tensor-Voigt (kbar):       -5.70        5.85       -0.03        0.00        0.00        0.00
Target enthalpy (eV/cell)    -1012.5422

siesta: Stress tensor (static) (eV/Ang**3):
        -0.003556    0.000001    0.000000
         0.000001    0.003670    0.000000
         0.000000    0.000000   -0.000017

siesta: Pressure (static):         -0.05128001  kBar

siesta: Stress tensor (total) (eV/Ang**3):
        -0.003557   -0.000003    0.000000
        -0.000003    0.003652    0.000000
         0.000000    0.000000   -0.000017

siesta: Pressure (total):         -0.04171798  kBar

siesta: Temp_ion =      61.477 K

* Maximum dynamic memory allocated =     5 MB

siesta:                 ==============================
                            Begin MD step =     32
                        ==============================
[...]

siesta: E_KS(eV) =            -1012.5864

siesta: Atomic forces (eV/Ang):
----------------------------------------
   Tot   -0.029456   -0.037803    0.001145
----------------------------------------
   Max    0.658540
   Res    0.182142    sqrt( Sum f_i^2 / 3N )
----------------------------------------
   Max    0.658540    constrained

Stress-tensor-Voigt (kbar):        2.46       -0.36       -0.04        0.15        0.01        0.00
Target enthalpy (eV/cell)    -1012.5864

siesta: Stress tensor (static) (eV/Ang**3):
         0.001537    0.000095   -0.000002
         0.000095   -0.000226    0.000007
        -0.000002    0.000007   -0.000016

siesta: Pressure (static):         -0.69145771  kBar

siesta: Stress tensor (total) (eV/Ang**3):
         0.001537    0.000095    0.000000
         0.000095   -0.000226    0.000005
         0.000000    0.000005   -0.000023

siesta: Pressure (total):         -0.68753439  kBar

siesta: Temp_ion =      69.626 K

* Maximum dynamic memory allocated =     5 MB

siesta:                 ==============================
                            Begin MD step =     95
                        ==============================

outcell: Unit cell vectors (Ang):
       10.000000    0.000000    0.000000
        0.000000   10.000000    0.000000
        0.000000    0.000000   10.000000

outcell: Cell vector modules (Ang)   :   10.000000   10.000000   10.000000
outcell: Cell angles (23,13,12) (deg):     90.0000     90.0000     90.0000
outcell: Cell volume (Ang**3)        :   1000.0000

siesta: iscf   Eharris(eV)      E_KS(eV)   FreeEng(eV)   dDmax  Ef(eV)
siesta:    1    -1012.6024    -1012.6997    -1012.6997  0.0194 -4.3535
siesta:    2    -1012.6010    -1012.5840    -1012.5840  0.0238 -3.9699
siesta:    3    -1012.5928    -1012.6412    -1012.6412  0.0026 -4.1757
siesta:    4    -1012.5926    -1012.5962    -1012.5962  0.0006 -4.1522
siesta:    5    -1012.5926    -1012.5927    -1012.5927  0.0004 -4.1521
siesta:    6    -1012.5926    -1012.5923    -1012.5923  0.0002 -4.1525
siesta:    7    -1012.5926    -1012.5924    -1012.5924  0.0000 -4.1528

siesta: E_KS(eV) =            -1012.5924

siesta: Atomic forces (eV/Ang):
----------------------------------------
   Tot   -0.020894   -0.013593    0.001938
----------------------------------------
   Max    0.822793
   Res    0.250279    sqrt( Sum f_i^2 / 3N )
----------------------------------------
   Max    0.822793    constrained

Stress-tensor-Voigt (kbar):       -0.15       -0.95       -0.02        0.35        0.02        0.05
Target enthalpy (eV/cell)    -1012.5924

siesta: Stress tensor (static) (eV/Ang**3):
        -0.000095    0.000218    0.000029
         0.000218   -0.000590    0.000012
         0.000029    0.000012   -0.000005

siesta: Pressure (static):          0.36845753  kBar

siesta: Stress tensor (total) (eV/Ang**3):
        -0.000095    0.000218    0.000028
         0.000218   -0.000591    0.000015
         0.000028    0.000015   -0.000014

siesta: Pressure (total):          0.37374780  kBar

siesta: Temp_ion =      90.245 K

* Maximum dynamic memory allocated =     5 MB

siesta:                 ==============================
                            Begin MD step =     96
                        ==============================

outcell: Unit cell vectors (Ang):
       10.000000    0.000000    0.000000
        0.000000   10.000000    0.000000
        0.000000    0.000000   10.000000

outcell: Cell vector modules (Ang)   :   10.000000   10.000000   10.000000
outcell: Cell angles (23,13,12) (deg):     90.0000     90.0000     90.0000
outcell: Cell volume (Ang**3)        :   1000.0000

siesta: iscf   Eharris(eV)      E_KS(eV)   FreeEng(eV)   dDmax  Ef(eV)
siesta:    1    -1012.6038    -1012.4756    -1012.4756  0.0246 -3.9477
siesta:    2    -1012.6029    -1012.5785    -1012.5785  0.0285 -4.3936
siesta:    3    -1012.5909    -1012.5370    -1012.5370  0.0032 -4.1504
siesta:    4    -1012.5905    -1012.5782    -1012.5782  0.0012 -4.1728
siesta:    5    -1012.5905    -1012.5914    -1012.5914  0.0006 -4.1791
siesta:    6    -1012.5905    -1012.5921    -1012.5921  0.0004 -4.1785
siesta:    7    -1012.5905    -1012.5905    -1012.5905  0.0001 -4.1769
siesta:    8    -1012.5905    -1012.5906    -1012.5906  0.0001 -4.1772

siesta: E_KS(eV) =            -1012.5907

siesta: Atomic forces (eV/Ang):
----------------------------------------
   Tot   -0.041175    0.014524    0.000351
----------------------------------------
   Max    0.621861
   Res    0.195317    sqrt( Sum f_i^2 / 3N )
----------------------------------------
   Max    0.621861    constrained

Stress-tensor-Voigt (kbar):        0.92        1.36        0.03        0.32        0.05       -0.01
Target enthalpy (eV/cell)    -1012.5907

siesta: Stress tensor (static) (eV/Ang**3):
         0.000577    0.000202   -0.000004
         0.000202    0.000853    0.000026
        -0.000004    0.000026    0.000026

siesta: Pressure (static):         -0.77762382  kBar

siesta: Stress tensor (total) (eV/Ang**3):
         0.000577    0.000202   -0.000004
         0.000202    0.000850    0.000030
        -0.000004    0.000030    0.000019

siesta: Pressure (total):         -0.77236683  kBar

siesta: Temp_ion =      63.014 K

* Maximum dynamic memory allocated =     5 MB

siesta:                 ==============================
                            Begin MD step =     97
                        ==============================

outcell: Unit cell vectors (Ang):
       10.000000    0.000000    0.000000
        0.000000   10.000000    0.000000
        0.000000    0.000000   10.000000

outcell: Cell vector modules (Ang)   :   10.000000   10.000000   10.000000
outcell: Cell angles (23,13,12) (deg):     90.0000     90.0000     90.0000
outcell: Cell volume (Ang**3)        :   1000.0000

siesta: iscf   Eharris(eV)      E_KS(eV)   FreeEng(eV)   dDmax  Ef(eV)
siesta:    1    -1012.5786    -1012.6406    -1012.6406  0.0061 -4.2142
siesta:    2    -1012.5785    -1012.5779    -1012.5779  0.0055 -4.1571
siesta:    3    -1012.5782    -1012.5916    -1012.5916  0.0017 -4.1775
siesta:    4    -1012.5782    -1012.5812    -1012.5812  0.0010 -4.1812
siesta:    5    -1012.5782    -1012.5785    -1012.5785  0.0003 -4.1849
siesta:    6    -1012.5782    -1012.5783    -1012.5783  0.0002 -4.1849
siesta:    7    -1012.5782    -1012.5782    -1012.5782  0.0000 -4.1846

siesta: E_KS(eV) =            -1012.5782

siesta: Atomic forces (eV/Ang):
----------------------------------------
   Tot   -0.016414    0.017640   -0.001734
----------------------------------------
   Max    0.510099
   Res    0.203136    sqrt( Sum f_i^2 / 3N )
----------------------------------------
   Max    0.510099    constrained

Stress-tensor-Voigt (kbar):        1.01        2.98        0.07        0.22        0.04       -0.06
Target enthalpy (eV/cell)    -1012.5782

siesta: Stress tensor (static) (eV/Ang**3):
         0.000629    0.000138   -0.000040
         0.000138    0.001864    0.000022
        -0.000040    0.000022    0.000048

siesta: Pressure (static):         -1.35695733  kBar

siesta: Stress tensor (total) (eV/Ang**3):
         0.000628    0.000137   -0.000038
         0.000137    0.001863    0.000024
        -0.000038    0.000024    0.000045

siesta: Pressure (total):         -1.35430832  kBar

siesta: Temp_ion =      30.848 K

* Maximum dynamic memory allocated =     5 MB

siesta:                 ==============================
                            Begin MD step =     98
                        ==============================

outcell: Unit cell vectors (Ang):
       10.000000    0.000000    0.000000
        0.000000   10.000000    0.000000
        0.000000    0.000000   10.000000

outcell: Cell vector modules (Ang)   :   10.000000   10.000000   10.000000
outcell: Cell angles (23,13,12) (deg):     90.0000     90.0000     90.0000
outcell: Cell volume (Ang**3)        :   1000.0000

siesta: iscf   Eharris(eV)      E_KS(eV)   FreeEng(eV)   dDmax  Ef(eV)
siesta:    1    -1012.5824    -1012.7006    -1012.7006  0.0170 -4.3236
siesta:    2    -1012.5816    -1012.5714    -1012.5714  0.0187 -4.0294
siesta:    3    -1012.5767    -1012.6308    -1012.6308  0.0025 -4.1838
siesta:    4    -1012.5766    -1012.5829    -1012.5829  0.0006 -4.1703
siesta:    5    -1012.5766    -1012.5773    -1012.5773  0.0004 -4.1700
siesta:    6    -1012.5766    -1012.5765    -1012.5765  0.0002 -4.1701
siesta:    7    -1012.5766    -1012.5764    -1012.5764  0.0000 -4.1702

siesta: E_KS(eV) =            -1012.5764

siesta: Atomic forces (eV/Ang):
----------------------------------------
   Tot   -0.003375    0.025277   -0.001546
----------------------------------------
   Max    0.654661
   Res    0.202876    sqrt( Sum f_i^2 / 3N )
----------------------------------------
   Max    0.654661    constrained

Stress-tensor-Voigt (kbar):       -1.71        2.07        0.08        0.11        0.05        0.02
Target enthalpy (eV/cell)    -1012.5764

siesta: Stress tensor (static) (eV/Ang**3):
        -0.001064    0.000067    0.000014
         0.000067    0.001297    0.000028
         0.000014    0.000028    0.000049

siesta: Pressure (static):         -0.15030763  kBar

siesta: Stress tensor (total) (eV/Ang**3):
        -0.001064    0.000067    0.000014
         0.000067    0.001294    0.000029
         0.000014    0.000029    0.000049

siesta: Pressure (total):         -0.14879935  kBar

siesta: Temp_ion =      20.520 K

* Maximum dynamic memory allocated =     5 MB

siesta:                 ==============================
                            Begin MD step =     99
                        ==============================

outcell: Unit cell vectors (Ang):
       10.000000    0.000000    0.000000
        0.000000   10.000000    0.000000
        0.000000    0.000000   10.000000

outcell: Cell vector modules (Ang)   :   10.000000   10.000000   10.000000
outcell: Cell angles (23,13,12) (deg):     90.0000     90.0000     90.0000
outcell: Cell volume (Ang**3)        :   1000.0000

siesta: iscf   Eharris(eV)      E_KS(eV)   FreeEng(eV)   dDmax  Ef(eV)
siesta:    1    -1012.5787    -1012.5337    -1012.5337  0.0134 -4.0212
siesta:    2    -1012.5784    -1012.5720    -1012.5720  0.0150 -4.2526
siesta:    3    -1012.5752    -1012.5563    -1012.5563  0.0018 -4.1285
siesta:    4    -1012.5752    -1012.5717    -1012.5717  0.0006 -4.1396
siesta:    5    -1012.5751    -1012.5753    -1012.5753  0.0003 -4.1414
siesta:    6    -1012.5751    -1012.5754    -1012.5754  0.0002 -4.1412
siesta:    7    -1012.5751    -1012.5751    -1012.5751  0.0000 -4.1407

siesta: E_KS(eV) =            -1012.5752

siesta: Atomic forces (eV/Ang):
----------------------------------------
   Tot   -0.007897    0.008393   -0.001942
----------------------------------------
   Max    0.450972
   Res    0.176412    sqrt( Sum f_i^2 / 3N )
----------------------------------------
   Max    0.450972    constrained

Stress-tensor-Voigt (kbar):       -2.36        1.91        0.07       -0.15        0.01       -0.01
Target enthalpy (eV/cell)    -1012.5752

siesta: Stress tensor (static) (eV/Ang**3):
        -0.001471   -0.000097   -0.000009
        -0.000097    0.001195    0.000005
        -0.000009    0.000005    0.000042

siesta: Pressure (static):          0.12512359  kBar

siesta: Stress tensor (total) (eV/Ang**3):
        -0.001471   -0.000097   -0.000009
        -0.000097    0.001192    0.000004
        -0.000009    0.000004    0.000041

siesta: Pressure (total):          0.12693626  kBar

siesta: Temp_ion =      23.404 K

* Maximum dynamic memory allocated =     5 MB

siesta:                 ==============================
                            Begin MD step =    100
                        ==============================

outcell: Unit cell vectors (Ang):
       10.000000    0.000000    0.000000
        0.000000   10.000000    0.000000
        0.000000    0.000000   10.000000

outcell: Cell vector modules (Ang)   :   10.000000   10.000000   10.000000
outcell: Cell angles (23,13,12) (deg):     90.0000     90.0000     90.0000
outcell: Cell volume (Ang**3)        :   1000.0000

siesta: iscf   Eharris(eV)      E_KS(eV)   FreeEng(eV)   dDmax  Ef(eV)
siesta:    1    -1012.5646    -1012.5529    -1012.5529  0.0087 -4.0272
siesta:    2    -1012.5646    -1012.5616    -1012.5616  0.0105 -4.1790
siesta:    3    -1012.5631    -1012.5587    -1012.5587  0.0018 -4.1005
siesta:    4    -1012.5630    -1012.5625    -1012.5625  0.0006 -4.1058
siesta:    5    -1012.5630    -1012.5630    -1012.5630  0.0002 -4.1052
siesta:    6    -1012.5630    -1012.5630    -1012.5630  0.0001 -4.1050
siesta:    7    -1012.5630    -1012.5630    -1012.5630  0.0000 -4.1048

siesta: E_KS(eV) =            -1012.5630

siesta: Atomic forces (eV/Ang):
----------------------------------------
   Tot    0.003271   -0.023542   -0.004403
----------------------------------------
   Max    0.733986
   Res    0.256896    sqrt( Sum f_i^2 / 3N )
----------------------------------------
   Max    0.733986    constrained

Stress-tensor-Voigt (kbar):       -1.66        2.10        0.05       -0.46       -0.03       -0.04
Target enthalpy (eV/cell)    -1012.5630

siesta: Stress tensor (static) (eV/Ang**3):
        -0.001037   -0.000287   -0.000026
        -0.000287    0.001314   -0.000018
        -0.000026   -0.000018    0.000035

siesta: Pressure (static):         -0.16669656  kBar

siesta: Stress tensor (total) (eV/Ang**3):
        -0.001037   -0.000287   -0.000026
        -0.000287    0.001313   -0.000019
        -0.000027   -0.000019    0.000033

siesta: Pressure (total):         -0.16490961  kBar

siesta: Temp_ion =      37.701 K

* Maximum dynamic memory allocated =     5 MB

siesta: Program's energy decomposition (eV):
siesta: Eions   =      2015.050817
siesta: Ena     =       651.002732
siesta: Ekin    =       680.308483
siesta: Enl     =       -35.530424
siesta: DEna    =        21.727073
siesta: DUscf   =         0.795500
siesta: DUext   =         0.000000
siesta: Exc     =      -315.815580
siesta: eta*DQ  =         0.000000
siesta: Emadel  =         0.000000
siesta: Ekinion =         0.053603
siesta: Eharris =     -1012.509418
siesta: Etot    =     -1012.509431
siesta: FreeEng =     -1012.509431

siesta: Final energy (eV):
siesta:       Kinetic =     680.308483
siesta:       Hartree =    1674.114870
siesta:    Ext. field =       0.000000
siesta:   Exch.-corr. =    -315.815580
siesta:  Ion-electron =   -4008.378222
siesta:       Ion-ion =     957.207415
siesta:       Ekinion =       0.053603
siesta:         Total =   -1012.509431

siesta: Atomic forces (eV/Ang):
siesta:      1    0.013292   -0.124416    0.064148
siesta:      2    0.733986    0.043031   -0.015520
siesta:      3    0.670139    0.197114   -0.317878
siesta:      4   -0.165954   -0.129010    0.221863
siesta:      5   -0.498491    0.097953   -0.018519
siesta:      6   -0.694902   -0.037195   -0.113361
siesta:      7    0.007857   -0.191541    0.053250
siesta:      8   -0.254401   -0.039346    0.100072
siesta:      9   -0.299574    0.036516   -0.023116
siesta:     10   -0.023328    0.161363    0.086330
siesta:     11    0.256117    0.008632   -0.031535
siesta:     12    0.258530   -0.046643   -0.010137
siesta: ----------------------------------------
siesta:    Tot    0.003271   -0.023542   -0.004403

siesta: Stress tensor (static) (eV/Ang**3):
siesta:    -0.001037   -0.000287   -0.000026
siesta:    -0.000287    0.001314   -0.000018
siesta:    -0.000026   -0.000018    0.000035

siesta: Cell volume =       1000.000000 Ang**3

siesta: Pressure (static):
siesta:                Solid            Molecule  Units
siesta:          -0.00000113          0.00000108  Ry/Bohr**3
siesta:          -0.00010404          0.00009874  eV/Ang**3
siesta:          -0.16669656          0.15819609  kBar

siesta: Electric dipole (a.u.)  =    0.001241    0.000000   -0.039229
siesta: Electric dipole (Debye) =    0.003155    0.000000   -0.099709

* Maximum dynamic memory allocated : Node    0 =     5 MB
* Maximum dynamic memory allocated : Node    1 =     5 MB
* Maximum dynamic memory allocated : Node    2 =     5 MB
* Maximum dynamic memory allocated : Node    3 =     5 MB

* Maximum memory occured during redistribXZ                   

timer: CPU execution times:
timer:  Routine       Calls   Time/call    Tot.time        %
timer:  siesta            1     349.920     349.920   100.00
timer:  Setup             1       1.361       1.361     0.39
timer:  bands             1       0.001       0.001     0.00
timer:  writewave         1       0.004       0.004     0.00
timer:  KSV_init          1       0.001       0.001     0.00
timer:  IterMD          100       3.485     348.542    99.61
timer:  hsparse         101       0.002       0.186     0.05
timer:  overfsm         200       0.001       0.247     0.07
timer:  IterSCF         813       0.425     345.145    98.64
timer:  kinefsm         200       0.001       0.198     0.06
timer:  nlefsm          200       0.014       2.900     0.83
timer:  DHSCF           813       0.369     299.705    85.65
timer:  DHSCF1            1       0.074       0.074     0.02
timer:  DHSCF2          100       0.354      35.371    10.11
timer:  REORD          6704       0.001       8.482     2.42
timer:  POISON          913       0.168     153.116    43.76
timer:  DHSCF3          813       0.295     239.666    68.49
timer:  rhoofd          813       0.027      21.626     6.18
timer:  cellXC          813       0.053      43.020    12.29
timer:  vmat            813       0.018      14.752     4.22
timer:  diagon          713       0.017      12.127     3.47
timer:  rdiag           713       0.017      11.886     3.40
timer:  rdiag1          713       0.001       0.668     0.19
timer:  rdiag2          713       0.001       0.960     0.27
timer:  rdiag3          713       0.012       8.812     2.52
timer:  rdiag4          713       0.001       0.455     0.13
timer:  DHSCF4          100       0.228      22.802     6.52
timer:  dfscf           100       0.160      16.010     4.58
timer:  optical           1       0.002       0.002     0.00
  

elaps: ELAPSED times:
elaps:  Routine       Calls   Time/call    Tot.time        %
elaps:  siesta            1      97.481      97.481    99.99
elaps:  Setup             1       0.386       0.386     0.40
elaps:  bands             1       0.000       0.000     0.00
elaps:  writewave         1       0.002       0.002     0.00
elaps:  KSV_init          1       0.000       0.000     0.00
elaps:  IterMD          100       0.971      97.081    99.58
elaps:  hsparse         101       0.000       0.041     0.04
elaps:  overfsm         200       0.000       0.068     0.07
elaps:  IterSCF         813       0.118      96.209    98.69
elaps:  kinefsm         200       0.000       0.056     0.06
elaps:  nlefsm          200       0.004       0.798     0.82
elaps:  DHSCF           813       0.101      82.357    84.48
elaps:  DHSCF1            1       0.019       0.019     0.02
elaps:  DHSCF2          100       0.096       9.589     9.84
elaps:  REORD          6704       0.000       2.245     2.30
elaps:  POISON          913       0.047      42.631    43.73
elaps:  DHSCF3          813       0.081      66.014    67.72
elaps:  rhoofd          813       0.007       6.079     6.24
elaps:  cellXC          813       0.014      11.417    11.71
elaps:  vmat            813       0.005       4.243     4.35
elaps:  diagon          713       0.005       3.242     3.33
elaps:  rdiag           713       0.004       3.178     3.26
elaps:  rdiag1          713       0.000       0.176     0.18
elaps:  rdiag2          713       0.000       0.237     0.24
elaps:  rdiag3          713       0.003       2.379     2.44
elaps:  rdiag4          713       0.000       0.124     0.13
elaps:  DHSCF4          100       0.062       6.202     6.36
elaps:  dfscf           100       0.043       4.337     4.45
elaps:  optical           1       0.000       0.000     0.00
  
>> End of run:  13-JUN-2007  15:46:34
