Siesta Version: siesta-2.0.1-patch-33
Architecture  : macosx-dualxeon-ifort-ompi
Compiler flags: /soft/parallel/openmpi-1.1.4-ifort/bin/mpif90 -O3 
PARALLEL version

* Running on    4 nodes in parallel
>> Start of run:  13-JUN-2007  16:13:23

                           ***********************       
                           *  WELCOME TO SIESTA  *       
                           ***********************       

reinit: Reading from standard input
************************** Dump of input data file ****************************
SystemName          Benzene
SystemLabel         C6H6             # Short name for naming files
NumberOfAtoms           12            # Number of atoms
NumberOfSpecies         2           # Number of species
%block Chemical_Species_Label
  1    6    C
  2    1    H
%endblock Chemical_Species_Label
PAO.BasisSize   SZ
AtomicCoordinatesFormat Ang
%block AtomicCoordinatesAndAtomicSpecies
   0.000  1.396  0.000  1
   1.209  0.698  0.000  1
   1.209 -0.698  0.000  1
   0.000 -1.396  0.000  1
  -1.209 -0.698  0.000  1
  -1.209  0.698  0.000  1
   0.000  2.479  0.000  2
   2.147  1.240  0.000  2
   2.147 -1.240  0.000  2
   0.000 -2.479  0.000  2
  -2.147 -1.240  0.000  2
  -2.147  1.240  0.000  2
%endblock AtomicCoordinatesAndAtomicSpecies
%block LatticeVectors
  1.000000  0.000000  0.000000
  0.000000  1.000000  0.000000
  0.000000  0.000000  1.000000
%endblock LatticeVectors
LatticeConstant        10.0000    Ang
MeshCutoff           100. Ry
xc.functional         LDA
xc.authors            CA
SolutionMethod        diagon        # OrderN or Diagon
MaxSCFIterations      100
DM.MixingWeight       0.20
DM.Tolerance          1.d-4
DM.NumberPulay         4
ElectronicTemperature  300 K
DM.UseSaveDM          true
UseSaveData           true
MD.TypeOfRun           verlet           # Type of dynamics:
#MD.NoseMass            0.2 Ry*fs**2
#MD.TargetTemperature  50 K
MD.FinalTimeStep       1000 fs
MD.LengthTimeStep      3 fs
WriteMDhistory        .true.
************************** End of input data file *****************************

reinit: -----------------------------------------------------------------------
reinit: System Name: Benzene                                                    
reinit: -----------------------------------------------------------------------
reinit: System Label: C6H6                                                        
reinit: -----------------------------------------------------------------------

initatom: Reading input for the pseudopotentials and atomic orbitals ----------
 Species number:            1  Label: C Atomic number:           6
 Species number:            2  Label: H Atomic number:           1
Ground state valence configuration:   2s02  2p02
Reading pseudopotential information in formatted form from C.psf
Ground state valence configuration:   1s01
Reading pseudopotential information in formatted form from H.psf
For C, standard SIESTA heuristics set lmxkb to 2
 (one more than the basis l, including polarization orbitals).
Use PS.lmax or PS.KBprojectors blocks to override.
For H, standard SIESTA heuristics set lmxkb to 1
 (one more than the basis l, including polarization orbitals).
Use PS.lmax or PS.KBprojectors blocks to override.

<basis_specs>
===============================================================================
C                    Z=   6    Mass=  12.010        Charge=  0.0000    
Lmxo=1 Lmxkb=2     BasisType=split      Semic=F
L=0  Nsemic=0  Cnfigmx=2
          n=1  nzeta=1  polorb=0
               vcte:    0.0000    
               rinn:    0.0000    
                rcs:    0.0000    
            lambdas:    1.0000    
L=1  Nsemic=0  Cnfigmx=2
          n=1  nzeta=1  polorb=0
               vcte:    0.0000    
               rinn:    0.0000    
                rcs:    0.0000    
            lambdas:    1.0000    
-------------------------------------------------------------------------------
L=0  Nkbl=1  erefs: 0.17977+309
L=1  Nkbl=1  erefs: 0.17977+309
L=2  Nkbl=1  erefs: 0.17977+309
===============================================================================
</basis_specs>

atom: Called for C   (Z =   6)

read_vps: Pseudopotential generation method:
read_vps: ATM3      Troullier-Martins                       

read_vps: Valence configuration (pseudopotential and basis set generation):
2s( 2.00) rc: 1.25
2p( 2.00) rc: 1.25
3d( 0.00) rc: 1.25
Total valence charge:    4.00000

xc_check: Exchange-correlation functional:
xc_check: Ceperley-Alder
V l=0 = -2*Zval/r beyond r=  1.3951
V l=1 = -2*Zval/r beyond r=  1.3777
V l=2 = -2*Zval/r beyond r=  1.3777
All V_l potentials equal beyond r=  1.2311
This should be close to max(r_c) in ps generation
All pots = -2*Zval/r beyond r=  1.3951

VLOCAL1: 99.0% of the norm of Vloc inside     28.641 Ry
VLOCAL1: 99.9% of the norm of Vloc inside     65.273 Ry
atom: Maximum radius for 4*pi*r*r*local-pseudopot. charge    1.48507
atom: Maximum radius for r*vlocal+2*Zval:    1.27815
GHOST: No ghost state for L =  0
GHOST: No ghost state for L =  1
GHOST: No ghost state for L =  2

KBgen: Kleinman-Bylander projectors: 
   l= 0   rc=  1.600766   el= -1.001946   Ekb=  7.816946   kbcos=  0.279978
   l= 1   rc=  1.620907   el= -0.398597   Ekb= -4.829535   kbcos= -0.287433
   l= 2   rc=  1.836783   el=  0.002326   Ekb= -1.327964   kbcos= -0.005365

KBgen: Total number of  Kleinman-Bylander projectors:    9
atom: -------------------------------------------------------------------------

atom: SANKEY-TYPE ORBITALS:

SPLIT: Orbitals with angular momentum L= 0

SPLIT: Basis orbitals for state 2s

SPLIT: PAO cut-off radius determined from an
SPLIT: energy shift=  0.020000 Ry

   izeta = 1
                 lambda =    1.000000
                     rc =    4.191849
                 energy =   -0.983900
                kinetic =    0.918801
    potential(screened) =   -1.902702
       potential(ionic) =   -5.506899

SPLIT: Orbitals with angular momentum L= 1

SPLIT: Basis orbitals for state 2p

SPLIT: PAO cut-off radius determined from an
SPLIT: energy shift=  0.020000 Ry

   izeta = 1
                 lambda =    1.000000
                     rc =    4.870301
                 energy =   -0.379088
                kinetic =    2.614064
    potential(screened) =   -2.993152
       potential(ionic) =   -6.506293
atom: Total number of Sankey-type orbitals:  4

atm_pop: Valence configuration(local Pseudopot. screening):
 2s( 2.00)                                                            
 2p( 2.00)                                                            
Vna: chval, zval:    4.00000   4.00000

Vna:  Cut-off radius for the neutral-atom potential:   4.870301

atom: _________________________________________________________________________

<basis_specs>
===============================================================================
H                    Z=   1    Mass=  1.0100        Charge=  0.0000    
Lmxo=0 Lmxkb=1     BasisType=split      Semic=F
L=0  Nsemic=0  Cnfigmx=1
          n=1  nzeta=1  polorb=0
               vcte:    0.0000    
               rinn:    0.0000    
                rcs:    0.0000    
            lambdas:    1.0000    
-------------------------------------------------------------------------------
L=0  Nkbl=1  erefs: 0.17977+309
L=1  Nkbl=1  erefs: 0.17977+309
===============================================================================
</basis_specs>

atom: Called for H   (Z =   1)

read_vps: Pseudopotential generation method:
read_vps: ATM3      Troullier-Martins                       

read_vps: Valence configuration (pseudopotential and basis set generation):
1s( 1.00) rc: 1.25
2p( 0.00) rc: 1.25
Total valence charge:    1.00000

xc_check: Exchange-correlation functional:
xc_check: Ceperley-Alder
V l=0 = -2*Zval/r beyond r=  1.2343
V l=1 = -2*Zval/r beyond r=  1.2189
All V_l potentials equal beyond r=  1.2343
This should be close to max(r_c) in ps generation
All pots = -2*Zval/r beyond r=  1.2343

VLOCAL1: 99.0% of the norm of Vloc inside     28.493 Ry
VLOCAL1: 99.9% of the norm of Vloc inside     64.935 Ry
atom: Maximum radius for 4*pi*r*r*local-pseudopot. charge    1.45251
atom: Maximum radius for r*vlocal+2*Zval:    1.21892
GHOST: No ghost state for L =  0
GHOST: No ghost state for L =  1

KBgen: Kleinman-Bylander projectors: 
   l= 0   rc=  1.364359   el= -0.467325   Ekb= -2.005361   kbcos= -0.336422
   l= 1   rc=  1.434438   el=  0.001430   Ekb= -0.501708   kbcos= -0.021697

KBgen: Total number of  Kleinman-Bylander projectors:    4
atom: -------------------------------------------------------------------------

atom: SANKEY-TYPE ORBITALS:

SPLIT: Orbitals with angular momentum L= 0

SPLIT: Basis orbitals for state 1s

SPLIT: PAO cut-off radius determined from an
SPLIT: energy shift=  0.020000 Ry

   izeta = 1
                 lambda =    1.000000
                     rc =    4.828263
                 energy =   -0.449375
                kinetic =    0.929372
    potential(screened) =   -1.378747
       potential(ionic) =   -1.915047
atom: Total number of Sankey-type orbitals:  1

atm_pop: Valence configuration(local Pseudopot. screening):
 1s( 1.00)                                                            
Vna: chval, zval:    1.00000   1.00000

Vna:  Cut-off radius for the neutral-atom potential:   4.828263

atom: _________________________________________________________________________

prinput: Basis input ----------------------------------------------------------

PAO.BasisType split     

%block ChemicalSpeciesLabel
    1    6 C                       # Species index, atomic number, species label
    2    1 H                       # Species index, atomic number, species label
%endblock ChemicalSpeciesLabel

%block PAO.Basis                 # Define Basis set
C           2                    # Species label, number of l-shells
 n=2   0   1                         # n, l, Nzeta 
   4.192   
   1.000   
 n=2   1   1                         # n, l, Nzeta 
   4.870   
   1.000   
H           1                    # Species label, number of l-shells
 n=1   0   1                         # n, l, Nzeta 
   4.828   
   1.000   
%endblock PAO.Basis

prinput: ----------------------------------------------------------------------


siesta: ******************** Simulation parameters ****************************
siesta:
siesta: The following are some of the parameters of the simulation.
siesta: A complete list of the parameters used, including default values,
siesta: can be found in file out.fdf
siesta:
coor:   Atomic-coordinates input format  =     Cartesian coordinates
coor:                                          (in Angstroms)
redata: Number of spin components        =     1
redata: Long output                      =     F
redata: Number of Atomic Species         =     2
redata: Charge density info will appear in .RHO file
redata: Write Mulliken Pop.              =     NO
redata: Mesh Cutoff                      =   100.0000  Ry
redata: Net charge of the system         =     0.0000 |e|
redata: Max. number of SCF Iter          =   100
redata: Performing Pulay mixing using    =     4 iterations
redata: Mix DM in first SCF step ?       =     F
redata: Write Pulay info on disk?        =     F
redata: New DM Mixing Weight             =     0.2000
redata: New DM Occupancy tolerance       = 0.000000000001
redata: No kicks to SCF
redata: DM Mixing Weight for Kicks       =     0.5000
redata: DM Tolerance for SCF             =     0.000100
redata: Require Energy convergence for SCF =     F
redata: DM Energy tolerance for SCF      =     0.000100 eV
redata: Using Saved Data (generic)   =     T
redata: Use continuation files for DM    =     T
redata: Neglect nonoverlap interactions  =     F
redata: Method of Calculation            =     Diagonalization
redata: Divide and Conquer               =     T
redata: Electronic Temperature           =     0.0019  Ry
redata: Fix the spin of the system       =     F
redata: Dynamics option                  =     Verlet MD run
redata: Initial MD time step             =     1
redata:   Final MD time step             =  1000
redata: Length of MD time step           =     3.0000  fs
redata: Initial Temperature of MD run    =     0.0000  K
redata: Perform a MD quench              =     F
redata: ***********************************************************************

ioxv: Reading coordinates and velocities from file
! Info in XV file prevails over previous structure input

siesta: Atomic coordinates (Bohr) and species
siesta:      0.00150   2.78857  -0.06000  1        1
siesta:      2.29994   1.33923  -0.00611  1        2
siesta:      2.33932  -1.37956   0.06231  1        3
siesta:      0.01655  -2.76980  -0.05548  1        4
siesta:     -2.31798  -1.37613   0.00393  1        5
siesta:     -2.29517   1.34669   0.07308  1        6
siesta:      0.00385   5.01828  -0.11815  2        7
siesta:      4.27381   2.36298  -0.03340  2        8
siesta:      4.31766  -2.38961   0.17357  2        9
siesta:      0.04082  -4.99456  -0.21616  2       10
siesta:     -4.29960  -2.39674  -0.03583  2       11
siesta:     -4.26623   2.38242   0.04554  2       12

initatomlists: Number of atoms, orbitals, and projectors:     12    30    78

siesta: System type = chain     

* ProcessorY, Blocksize:    2   8


siesta: k-grid: Number of k-points =     1
siesta: k-grid: Cutoff (effective) =     5.000 Ang
siesta: k-grid: Supercell and displacements
siesta: k-grid:    0   1   0      0.000
siesta: k-grid:    0   0   1      0.000
siesta: k-grid:    1   0   0      0.000

* Maximum dynamic memory allocated =     1 MB

siesta:                 ==============================
                            Begin MD step =      1
                        ==============================

outcell: Unit cell vectors (Ang):
       10.000000    0.000000    0.000000
        0.000000   10.000000    0.000000
        0.000000    0.000000   10.000000

outcell: Cell vector modules (Ang)   :   10.000000   10.000000   10.000000
outcell: Cell angles (23,13,12) (deg):     90.0000     90.0000     90.0000
outcell: Cell volume (Ang**3)        :   1000.0000

iodm: Reading Density Matrix from files

InitMesh: MESH =    64 x    64 x    64 =      262144
InitMesh: Mesh cutoff (required, used) =   100.000   113.204 Ry

* Maximum dynamic memory allocated =     5 MB

stepf: Fermi-Dirac step function

siesta: Program's energy decomposition (eV):
siesta: Eions   =      2015.050817
siesta: Ena     =       650.763824
siesta: Ekin    =       680.823116
siesta: Enl     =       -35.529179
siesta: DEna    =        21.688158
siesta: DUscf   =         0.778878
siesta: DUext   =         0.000000
siesta: Exc     =      -316.224769
siesta: eta*DQ  =         0.000000
siesta: Emadel  =         0.000000
siesta: Ekinion =         0.000000
siesta: Eharris =     -1012.548791
siesta: Etot    =     -1012.750789
siesta: FreeEng =     -1012.750789

siesta: iscf   Eharris(eV)      E_KS(eV)   FreeEng(eV)   dDmax  Ef(eV)
siesta:    1    -1012.5488    -1012.7508    -1012.7508  0.0306 -4.1815
timer: Routine,Calls,Time,% = IterSCF        1       1.238  46.94
elaps: Routine,Calls,Wall,% = IterSCF        1       0.343  46.19
siesta:    2    -1012.5485    -1012.5437    -1012.5437  0.0128 -3.9887
siesta:    3    -1012.5462    -1012.5885    -1012.5885  0.0065 -4.0566
siesta:    4    -1012.5461    -1012.5503    -1012.5503  0.0012 -4.0762
siesta:    5    -1012.5461    -1012.5463    -1012.5463  0.0004 -4.0808
siesta:    6    -1012.5461    -1012.5462    -1012.5462  0.0003 -4.0809
siesta:    7    -1012.5461    -1012.5460    -1012.5460  0.0000 -4.0808

siesta: E_KS(eV) =            -1012.5460

siesta: E_KS - E_eggbox =     -1012.5460

siesta: Atomic forces (eV/Ang):
----------------------------------------
   Tot   -0.010610   -0.033684   -0.000823
----------------------------------------
   Max    0.623543
   Res    0.216555    sqrt( Sum f_i^2 / 3N )
----------------------------------------
   Max    0.623543    constrained

Stress-tensor-Voigt (kbar):       -4.45       -0.53        0.04       -0.63       -0.05        0.02
Target enthalpy (eV/cell)    -1012.5460

siesta: Stress tensor (static) (eV/Ang**3):
        -0.002773   -0.000394    0.000009
        -0.000394   -0.000330   -0.000029
         0.000009   -0.000029    0.000034

siesta: Pressure (static):          1.63950402  kBar

siesta: Stress tensor (total) (eV/Ang**3):
        -0.002774   -0.000393    0.000012
        -0.000393   -0.000331   -0.000032
         0.000011   -0.000032    0.000027

siesta: Pressure (total):          1.64426713  kBar

siesta: Temp_ion =      37.701 K

* Maximum dynamic memory allocated =     5 MB

siesta:                 ==============================
                            Begin MD step =      2
                        ==============================

outcell: Unit cell vectors (Ang):
       10.000000    0.000000    0.000000
        0.000000   10.000000    0.000000
        0.000000    0.000000   10.000000

outcell: Cell vector modules (Ang)   :   10.000000   10.000000   10.000000
outcell: Cell angles (23,13,12) (deg):     90.0000     90.0000     90.0000
outcell: Cell volume (Ang**3)        :   1000.0000

siesta: iscf   Eharris(eV)      E_KS(eV)   FreeEng(eV)   dDmax  Ef(eV)
siesta:    1    -1012.5182    -1012.3806    -1012.3806  0.0299 -3.9221
siesta:    2    -1012.5179    -1012.5079    -1012.5079  0.0191 -4.2131
siesta:    3    -1012.5129    -1012.4620    -1012.4620  0.0115 -4.0726
siesta:    4    -1012.5128    -1012.5098    -1012.5098  0.0007 -4.0735
siesta:    5    -1012.5128    -1012.5128    -1012.5128  0.0003 -4.0728
siesta:    6    -1012.5128    -1012.5128    -1012.5128  0.0002 -4.0724
siesta:    7    -1012.5128    -1012.5127    -1012.5127  0.0000 -4.0719

siesta: E_KS(eV) =            -1012.5128

siesta: Atomic forces (eV/Ang):
----------------------------------------
   Tot   -0.019568   -0.074741    0.000745
----------------------------------------
   Max    1.006611
   Res    0.322150    sqrt( Sum f_i^2 / 3N )
----------------------------------------
   Max    1.006611    constrained

Stress-tensor-Voigt (kbar):       -4.20       -0.98        0.08       -0.78       -0.09        0.09
Target enthalpy (eV/cell)    -1012.5128

siesta: Stress tensor (static) (eV/Ang**3):
        -0.002623   -0.000490    0.000053
        -0.000490   -0.000609   -0.000051
         0.000053   -0.000051    0.000058

siesta: Pressure (static):          1.69507587  kBar

siesta: Stress tensor (total) (eV/Ang**3):
        -0.002624   -0.000489    0.000055
        -0.000489   -0.000610   -0.000054
         0.000055   -0.000054    0.000050

siesta: Pressure (total):          1.69983898  kBar

siesta: Temp_ion =      15.139 K

* Maximum dynamic memory allocated =     5 MB

siesta:                 ==============================
                            Begin MD step =      3
                        ==============================

outcell: Unit cell vectors (Ang):
       10.000000    0.000000    0.000000
        0.000000   10.000000    0.000000
        0.000000    0.000000   10.000000

outcell: Cell vector modules (Ang)   :   10.000000   10.000000   10.000000
outcell: Cell angles (23,13,12) (deg):     90.0000     90.0000     90.0000
outcell: Cell volume (Ang**3)        :   1000.0000

siesta: iscf   Eharris(eV)      E_KS(eV)   FreeEng(eV)   dDmax  Ef(eV)
siesta:    1    -1012.5054    -1012.4273    -1012.4273  0.0072 -4.1258
siesta:    2    -1012.5053    -1012.5039    -1012.5039  0.0070 -4.0362
siesta:    3    -1012.5046    -1012.4799    -1012.4799  0.0024 -4.0751
siesta:    4    -1012.5046    -1012.4994    -1012.4994  0.0009 -4.0763
siesta:    5    -1012.5046    -1012.5040    -1012.5040  0.0004 -4.0797
siesta:    6    -1012.5046    -1012.5043    -1012.5043  0.0003 -4.0799
siesta:    7    -1012.5046    -1012.5046    -1012.5046  0.0001 -4.0798

siesta: E_KS(eV) =            -1012.5047

siesta: Atomic forces (eV/Ang):
----------------------------------------
   Tot   -0.023101   -0.070813    0.001604
----------------------------------------
   Max    1.138513
   Res    0.348811    sqrt( Sum f_i^2 / 3N )
----------------------------------------
   Max    1.138513    constrained

Stress-tensor-Voigt (kbar):       -4.18       -0.96        0.12       -0.61       -0.09        0.11
Target enthalpy (eV/cell)    -1012.5047

siesta: Stress tensor (static) (eV/Ang**3):
        -0.002611   -0.000380    0.000070
        -0.000380   -0.000602   -0.000059
         0.000070   -0.000059    0.000075

siesta: Pressure (static):          1.67626755  kBar

siesta: Stress tensor (total) (eV/Ang**3):
        -0.002612   -0.000381    0.000070
        -0.000381   -0.000602   -0.000059
         0.000070   -0.000059    0.000072

siesta: Pressure (total):          1.67790049  kBar

siesta: Temp_ion =       9.840 K

* Maximum dynamic memory allocated =     5 MB

siesta:                 ==============================
                            Begin MD step =      4
                        ==============================

outcell: Unit cell vectors (Ang):
       10.000000    0.000000    0.000000
        0.000000   10.000000    0.000000
        0.000000    0.000000   10.000000

outcell: Cell vector modules (Ang)   :   10.000000   10.000000   10.000000
outcell: Cell angles (23,13,12) (deg):     90.0000     90.0000     90.0000
outcell: Cell volume (Ang**3)        :   1000.0000

siesta: iscf   Eharris(eV)      E_KS(eV)   FreeEng(eV)   dDmax  Ef(eV)
siesta:    1    -1012.5307    -1012.4596    -1012.4596  0.0106 -4.1543
siesta:    2    -1012.5305    -1012.5284    -1012.5284  0.0087 -4.0426
siesta:    3    -1012.5294    -1012.5050    -1012.5050  0.0026 -4.0935
siesta:    4    -1012.5294    -1012.5228    -1012.5228  0.0014 -4.0928
siesta:    5    -1012.5294    -1012.5287    -1012.5287  0.0004 -4.0970
siesta:    6    -1012.5294    -1012.5290    -1012.5290  0.0003 -4.0971
siesta:    7    -1012.5294    -1012.5294    -1012.5294  0.0001 -4.0968

siesta: E_KS(eV) =            -1012.5294

siesta: Atomic forces (eV/Ang):
----------------------------------------
   Tot   -0.006977   -0.041855    0.000718
----------------------------------------
   Max    0.773964
   Res    0.268125    sqrt( Sum f_i^2 / 3N )
----------------------------------------
   Max    0.773964    constrained

Stress-tensor-Voigt (kbar):       -4.76       -0.33        0.11       -0.22       -0.08        0.02
Target enthalpy (eV/cell)    -1012.5294

siesta: Stress tensor (static) (eV/Ang**3):
        -0.002970   -0.000138    0.000009
        -0.000138   -0.000207   -0.000050
         0.000009   -0.000050    0.000067

siesta: Pressure (static):          1.66074209  kBar

siesta: Stress tensor (total) (eV/Ang**3):
        -0.002970   -0.000138    0.000009
        -0.000138   -0.000207   -0.000050
         0.000009   -0.000050    0.000067

siesta: Pressure (total):          1.66113821  kBar

siesta: Temp_ion =      26.658 K

* Maximum dynamic memory allocated =     5 MB

siesta:                 ==============================
                            Begin MD step =      5
                        ==============================

outcell: Unit cell vectors (Ang):
       10.000000    0.000000    0.000000
        0.000000   10.000000    0.000000
        0.000000    0.000000   10.000000

outcell: Cell vector modules (Ang)   :   10.000000   10.000000   10.000000
outcell: Cell angles (23,13,12) (deg):     90.0000     90.0000     90.0000
outcell: Cell volume (Ang**3)        :   1000.0000

siesta: iscf   Eharris(eV)      E_KS(eV)   FreeEng(eV)   dDmax  Ef(eV)
siesta:    1    -1012.5709    -1012.4488    -1012.4488  0.0114 -4.0315
siesta:    2    -1012.5708    -1012.5672    -1012.5672  0.0119 -4.2058
siesta:    3    -1012.5690    -1012.5225    -1012.5225  0.0022 -4.1212
siesta:    4    -1012.5690    -1012.5647    -1012.5647  0.0006 -4.1227
siesta:    5    -1012.5690    -1012.5687    -1012.5687  0.0002 -4.1222
siesta:    6    -1012.5690    -1012.5689    -1012.5689  0.0001 -4.1220
siesta:    7    -1012.5690    -1012.5689    -1012.5689  0.0000 -4.1218

siesta: E_KS(eV) =            -1012.5690

siesta: Atomic forces (eV/Ang):
----------------------------------------
   Tot   -0.026502   -0.015384   -0.000990
----------------------------------------
   Max    0.594586
   Res    0.197941    sqrt( Sum f_i^2 / 3N )
----------------------------------------
   Max    0.594586    constrained

Stress-tensor-Voigt (kbar):       -3.05        1.88        0.08        0.02       -0.03        0.03
Target enthalpy (eV/cell)    -1012.5690

siesta: Stress tensor (static) (eV/Ang**3):
        -0.001903    0.000009    0.000019
         0.000009    0.001178   -0.000019
         0.000019   -0.000019    0.000050

siesta: Pressure (static):          0.36048154  kBar

siesta: Stress tensor (total) (eV/Ang**3):
        -0.001904    0.000010    0.000019
         0.000010    0.001176   -0.000020
         0.000019   -0.000020    0.000049

siesta: Pressure (total):          0.36234113  kBar

siesta: Temp_ion =      52.591 K

* Maximum dynamic memory allocated =     5 MB

siesta:                 ==============================
                            Begin MD step =      6
                        ==============================

outcell: Unit cell vectors (Ang):
       10.000000    0.000000    0.000000
        0.000000   10.000000    0.000000
        0.000000    0.000000   10.000000

outcell: Cell vector modules (Ang)   :   10.000000   10.000000   10.000000
outcell: Cell angles (23,13,12) (deg):     90.0000     90.0000     90.0000
outcell: Cell volume (Ang**3)        :   1000.0000

siesta: iscf   Eharris(eV)      E_KS(eV)   FreeEng(eV)   dDmax  Ef(eV)
siesta:    1    -1012.5930    -1012.5906    -1012.5906  0.0042 -4.1832
siesta:    2    -1012.5931    -1012.5927    -1012.5927  0.0046 -4.1382
siesta:    3    -1012.5929    -1012.5923    -1012.5923  0.0011 -4.1554
siesta:    4    -1012.5929    -1012.5927    -1012.5927  0.0006 -4.1570
siesta:    5    -1012.5929    -1012.5928    -1012.5928  0.0002 -4.1599
siesta:    6    -1012.5929    -1012.5928    -1012.5928  0.0001 -4.1600
siesta:    7    -1012.5929    -1012.5929    -1012.5929  0.0000 -4.1600

siesta: E_KS(eV) =            -1012.5929

siesta: Atomic forces (eV/Ang):
----------------------------------------
   Tot   -0.039105    0.020189   -0.000181
----------------------------------------
   Max    0.336081
   Res    0.144474    sqrt( Sum f_i^2 / 3N )
----------------------------------------
   Max    0.336081    constrained

Stress-tensor-Voigt (kbar):       -1.23        3.40        0.03        0.23        0.02        0.03
Target enthalpy (eV/cell)    -1012.5929

siesta: Stress tensor (static) (eV/Ang**3):
        -0.000764    0.000140    0.000016
         0.000140    0.002128    0.000014
         0.000016    0.000014    0.000025

siesta: Pressure (static):         -0.74194328  kBar

siesta: Stress tensor (total) (eV/Ang**3):
        -0.000765    0.000143    0.000019
         0.000143    0.002125    0.000010
         0.000019    0.000010    0.000020

siesta: Pressure (total):         -0.73686082  kBar

siesta: Temp_ion =      69.277 K

* Maximum dynamic memory allocated =     5 MB

siesta:                 ==============================
                            Begin MD step =      7
                        ==============================

outcell: Unit cell vectors (Ang):
       10.000000    0.000000    0.000000
        0.000000   10.000000    0.000000
        0.000000    0.000000   10.000000

outcell: Cell vector modules (Ang)   :   10.000000   10.000000   10.000000
outcell: Cell angles (23,13,12) (deg):     90.0000     90.0000     90.0000
outcell: Cell volume (Ang**3)        :   1000.0000

siesta: iscf   Eharris(eV)      E_KS(eV)   FreeEng(eV)   dDmax  Ef(eV)
siesta:    1    -1012.5944    -1012.6654    -1012.6654  0.0086 -4.2757
siesta:    2    -1012.5942    -1012.5918    -1012.5918  0.0096 -4.1395
siesta:    3    -1012.5930    -1012.6244    -1012.6244  0.0013 -4.2106
siesta:    4    -1012.5930    -1012.6036    -1012.6036  0.0007 -4.2049
siesta:    5    -1012.5930    -1012.5934    -1012.5934  0.0003 -4.2044
siesta:    6    -1012.5930    -1012.5930    -1012.5930  0.0002 -4.2044
siesta:    7    -1012.5930    -1012.5929    -1012.5929  0.0000 -4.2045

siesta: E_KS(eV) =            -1012.5929

siesta: Atomic forces (eV/Ang):
----------------------------------------
   Tot   -0.036790    0.026328    0.002183
----------------------------------------
   Max    0.667890
   Res    0.215479    sqrt( Sum f_i^2 / 3N )
----------------------------------------
   Max    0.667890    constrained

Stress-tensor-Voigt (kbar):       -0.23        3.36        0.00        0.29        0.02       -0.02
Target enthalpy (eV/cell)    -1012.5929

siesta: Stress tensor (static) (eV/Ang**3):
        -0.000141    0.000180   -0.000016
         0.000180    0.002096    0.000016
        -0.000016    0.000016    0.000005

siesta: Pressure (static):         -1.04671249  kBar

siesta: Stress tensor (total) (eV/Ang**3):
        -0.000142    0.000181   -0.000014
         0.000181    0.002094    0.000013
        -0.000013    0.000013   -0.000002

siesta: Pressure (total):         -1.04168768  kBar

siesta: Temp_ion =      69.765 K

* Maximum dynamic memory allocated =     5 MB

siesta:                 ==============================
                            Begin MD step =      8
                        ==============================

outcell: Unit cell vectors (Ang):
       10.000000    0.000000    0.000000
        0.000000   10.000000    0.000000
        0.000000    0.000000   10.000000

outcell: Cell vector modules (Ang)   :   10.000000   10.000000   10.000000
outcell: Cell angles (23,13,12) (deg):     90.0000     90.0000     90.0000
outcell: Cell volume (Ang**3)        :   1000.0000

siesta: iscf   Eharris(eV)      E_KS(eV)   FreeEng(eV)   dDmax  Ef(eV)
siesta:    1    -1012.5792    -1012.5953    -1012.5953  0.0096 -4.1583
siesta:    2    -1012.5792    -1012.5761    -1012.5761  0.0099 -4.3085
siesta:    3    -1012.5776    -1012.5856    -1012.5856  0.0017 -4.2274
siesta:    4    -1012.5775    -1012.5807    -1012.5807  0.0008 -4.2346
siesta:    5    -1012.5775    -1012.5776    -1012.5776  0.0003 -4.2354
siesta:    6    -1012.5775    -1012.5776    -1012.5776  0.0002 -4.2353
siesta:    7    -1012.5775    -1012.5776    -1012.5776  0.0000 -4.2351

siesta: E_KS(eV) =            -1012.5775

siesta: Atomic forces (eV/Ang):
----------------------------------------
   Tot   -0.056510    0.006009    0.004295
----------------------------------------
   Max    0.860848
   Res    0.250770    sqrt( Sum f_i^2 / 3N )
----------------------------------------
   Max    0.860848    constrained

Stress-tensor-Voigt (kbar):        1.97        3.09       -0.01        0.30        0.03       -0.01
Target enthalpy (eV/cell)    -1012.5775

siesta: Stress tensor (static) (eV/Ang**3):
         0.001231    0.000184   -0.000010
         0.000184    0.001929    0.000018
        -0.000010    0.000018    0.000000

siesta: Pressure (static):         -1.68772311  kBar

siesta: Stress tensor (total) (eV/Ang**3):
         0.001230    0.000185   -0.000008
         0.000185    0.001928    0.000016
        -0.000008    0.000016   -0.000005

siesta: Pressure (total):         -1.68399480  kBar

siesta: Temp_ion =      59.301 K

* Maximum dynamic memory allocated =     5 MB

siesta:                 ==============================
                            Begin MD step =      9
                        ==============================

outcell: Unit cell vectors (Ang):
       10.000000    0.000000    0.000000
        0.000000   10.000000    0.000000
        0.000000    0.000000   10.000000

outcell: Cell vector modules (Ang)   :   10.000000   10.000000   10.000000
outcell: Cell angles (23,13,12) (deg):     90.0000     90.0000     90.0000
outcell: Cell volume (Ang**3)        :   1000.0000

siesta: iscf   Eharris(eV)      E_KS(eV)   FreeEng(eV)   dDmax  Ef(eV)
siesta:    1    -1012.5610    -1012.6358    -1012.6358  0.0030 -4.2294
siesta:    2    -1012.5610    -1012.5608    -1012.5608  0.0058 -4.2403
siesta:    3    -1012.5609    -1012.5742    -1012.5742  0.0017 -4.2365
siesta:    4    -1012.5609    -1012.5633    -1012.5633  0.0006 -4.2355
siesta:    5    -1012.5609    -1012.5615    -1012.5615  0.0002 -4.2343
siesta:    6    -1012.5609    -1012.5611    -1012.5611  0.0001 -4.2342

siesta: E_KS(eV) =            -1012.5609

siesta: Atomic forces (eV/Ang):
----------------------------------------
   Tot   -0.041743   -0.005503    0.003176
----------------------------------------
   Max    0.881709
   Res    0.260924    sqrt( Sum f_i^2 / 3N )
----------------------------------------
   Max    0.881709    constrained

Stress-tensor-Voigt (kbar):        3.89        1.86        0.02        0.21        0.01       -0.02
Target enthalpy (eV/cell)    -1012.5609

siesta: Stress tensor (static) (eV/Ang**3):
         0.002431    0.000127   -0.000012
         0.000127    0.001161    0.000010
        -0.000012    0.000010    0.000016

siesta: Pressure (static):         -1.92676668  kBar

siesta: Stress tensor (total) (eV/Ang**3):
         0.002431    0.000128   -0.000011
         0.000128    0.001160    0.000009
        -0.000011    0.000009    0.000014

siesta: Pressure (total):         -1.92502771  kBar

siesta: Temp_ion =      48.658 K

* Maximum dynamic memory allocated =     5 MB

siesta:                 ==============================
                            Begin MD step =     10
                        ==============================

outcell: Unit cell vectors (Ang):
       10.000000    0.000000    0.000000
        0.000000   10.000000    0.000000
        0.000000    0.000000   10.000000

outcell: Cell vector modules (Ang)   :   10.000000   10.000000   10.000000
outcell: Cell angles (23,13,12) (deg):     90.0000     90.0000     90.0000
outcell: Cell volume (Ang**3)        :   1000.0000

siesta: iscf   Eharris(eV)      E_KS(eV)   FreeEng(eV)   dDmax  Ef(eV)
siesta:    1    -1012.5577    -1012.6769    -1012.6769  0.0119 -4.2835
siesta:    2    -1012.5576    -1012.5543    -1012.5543  0.0123 -4.1224
siesta:    3    -1012.5559    -1012.6032    -1012.6032  0.0022 -4.2013
siesta:    4    -1012.5559    -1012.5691    -1012.5691  0.0008 -4.1982
siesta:    5    -1012.5559    -1012.5568    -1012.5568  0.0003 -4.1994
siesta:    6    -1012.5559    -1012.5563    -1012.5563  0.0002 -4.1994
siesta:    7    -1012.5559    -1012.5559    -1012.5559  0.0000 -4.1994

siesta: E_KS(eV) =            -1012.5559

siesta: Atomic forces (eV/Ang):
----------------------------------------
   Tot   -0.062796   -0.029371    0.002081
----------------------------------------
   Max    0.980747
   Res    0.273825    sqrt( Sum f_i^2 / 3N )
----------------------------------------
   Max    0.980747    constrained

Stress-tensor-Voigt (kbar):        3.41       -1.00        0.04        0.34       -0.01        0.05
Target enthalpy (eV/cell)    -1012.5559

siesta: Stress tensor (static) (eV/Ang**3):
         0.002130    0.000214    0.000032
         0.000214   -0.000624   -0.000006
         0.000032   -0.000006    0.000028

siesta: Pressure (static):         -0.81948163  kBar

siesta: Stress tensor (total) (eV/Ang**3):
         0.002130    0.000214    0.000032
         0.000214   -0.000624   -0.000006
         0.000032   -0.000006    0.000028

siesta: Pressure (total):         -0.81946153  kBar

siesta: Temp_ion =      44.545 K

* Maximum dynamic memory allocated =     5 MB

siesta:                 ==============================
                            Begin MD step =     11
                        ==============================

outcell: Unit cell vectors (Ang):
       10.000000    0.000000    0.000000
        0.000000   10.000000    0.000000
        0.000000    0.000000   10.000000

outcell: Cell vector modules (Ang)   :   10.000000   10.000000   10.000000
outcell: Cell angles (23,13,12) (deg):     90.0000     90.0000     90.0000
outcell: Cell volume (Ang**3)        :   1000.0000

siesta: iscf   Eharris(eV)      E_KS(eV)   FreeEng(eV)   dDmax  Ef(eV)
siesta:    1    -1012.5562    -1012.5654    -1012.5654  0.0078 -4.0825
siesta:    2    -1012.5564    -1012.5540    -1012.5540  0.0119 -4.2000
siesta:    3    -1012.5551    -1012.5591    -1012.5591  0.0020 -4.1414
siesta:    4    -1012.5551    -1012.5561    -1012.5561  0.0009 -4.1461
siesta:    5    -1012.5551    -1012.5551    -1012.5551  0.0003 -4.1433
siesta:    6    -1012.5551    -1012.5551    -1012.5551  0.0002 -4.1431
siesta:    7    -1012.5551    -1012.5551    -1012.5551  0.0001 -4.1430

siesta: E_KS(eV) =            -1012.5551

siesta: Atomic forces (eV/Ang):
----------------------------------------
   Tot   -0.035047   -0.038985    0.001567
----------------------------------------
   Max    0.701047
   Res    0.234379    sqrt( Sum f_i^2 / 3N )
----------------------------------------
   Max    0.701047    constrained

Stress-tensor-Voigt (kbar):        3.03       -3.05        0.05        0.28       -0.02        0.06
Target enthalpy (eV/cell)    -1012.5551

siesta: Stress tensor (static) (eV/Ang**3):
         0.001893    0.000178    0.000033
         0.000178   -0.001902   -0.000011
         0.000033   -0.000011    0.000038

siesta: Pressure (static):         -0.01523398  kBar

siesta: Stress tensor (total) (eV/Ang**3):
         0.001892    0.000178    0.000035
         0.000178   -0.001902   -0.000011
         0.000034   -0.000011    0.000034

siesta: Pressure (total):         -0.01314511  kBar

siesta: Temp_ion =      43.434 K

* Maximum dynamic memory allocated =     5 MB

siesta:                 ==============================
                            Begin MD step =     12
                        ==============================

outcell: Unit cell vectors (Ang):
       10.000000    0.000000    0.000000
        0.000000   10.000000    0.000000
        0.000000    0.000000   10.000000

outcell: Cell vector modules (Ang)   :   10.000000   10.000000   10.000000
outcell: Cell angles (23,13,12) (deg):     90.0000     90.0000     90.0000
outcell: Cell volume (Ang**3)        :   1000.0000

siesta: iscf   Eharris(eV)      E_KS(eV)   FreeEng(eV)   dDmax  Ef(eV)
siesta:    1    -1012.5502    -1012.5330    -1012.5330  0.0059 -4.0486
siesta:    2    -1012.5503    -1012.5491    -1012.5491  0.0091 -4.1229
siesta:    3    -1012.5496    -1012.5436    -1012.5436  0.0018 -4.0884
siesta:    4    -1012.5496    -1012.5482    -1012.5482  0.0008 -4.0898
siesta:    5    -1012.5496    -1012.5494    -1012.5494  0.0002 -4.0869
siesta:    6    -1012.5496    -1012.5495    -1012.5495  0.0002 -4.0866
siesta:    7    -1012.5496    -1012.5496    -1012.5496  0.0000 -4.0867

siesta: E_KS(eV) =            -1012.5496

siesta: Atomic forces (eV/Ang):
----------------------------------------
   Tot   -0.052956   -0.028634   -0.001628
----------------------------------------
   Max    0.834804
   Res    0.236443    sqrt( Sum f_i^2 / 3N )
----------------------------------------
   Max    0.834804    constrained

Stress-tensor-Voigt (kbar):        2.55       -4.25        0.05        0.04       -0.01       -0.04
Target enthalpy (eV/cell)    -1012.5496

siesta: Stress tensor (static) (eV/Ang**3):
         0.001593    0.000027   -0.000026
         0.000027   -0.002651   -0.000008
        -0.000026   -0.000008    0.000040

siesta: Pressure (static):          0.54383358  kBar

siesta: Stress tensor (total) (eV/Ang**3):
         0.001593    0.000027   -0.000024
         0.000027   -0.002651   -0.000009
        -0.000025   -0.000009    0.000028

siesta: Pressure (total):          0.55006117  kBar

siesta: Temp_ion =      39.957 K

* Maximum dynamic memory allocated =     5 MB

siesta:                 ==============================
                            Begin MD step =     13
                        ==============================

outcell: Unit cell vectors (Ang):
       10.000000    0.000000    0.000000
        0.000000   10.000000    0.000000
        0.000000    0.000000   10.000000

outcell: Cell vector modules (Ang)   :   10.000000   10.000000   10.000000
outcell: Cell angles (23,13,12) (deg):     90.0000     90.0000     90.0000
outcell: Cell volume (Ang**3)        :   1000.0000

siesta: iscf   Eharris(eV)      E_KS(eV)   FreeEng(eV)   dDmax  Ef(eV)
siesta:    1    -1012.5436    -1012.5474    -1012.5474  0.0097 -4.1463
siesta:    2    -1012.5433    -1012.5395    -1012.5395  0.0115 -3.9679
siesta:    3    -1012.5414    -1012.5440    -1012.5440  0.0017 -4.0612
siesta:    4    -1012.5414    -1012.5418    -1012.5418  0.0005 -4.0533
siesta:    5    -1012.5414    -1012.5414    -1012.5414  0.0002 -4.0532
siesta:    6    -1012.5414    -1012.5414    -1012.5414  0.0001 -4.0534
siesta:    7    -1012.5414    -1012.5414    -1012.5414  0.0000 -4.0536

siesta: E_KS(eV) =            -1012.5414

siesta: Atomic forces (eV/Ang):
----------------------------------------
   Tot   -0.051560   -0.035038    0.000607
----------------------------------------
   Max    1.047288
   Res    0.254111    sqrt( Sum f_i^2 / 3N )
----------------------------------------
   Max    1.047288    constrained

Stress-tensor-Voigt (kbar):        0.23       -5.53        0.02       -0.21        0.01       -0.01
Target enthalpy (eV/cell)    -1012.5414

siesta: Stress tensor (static) (eV/Ang**3):
         0.000148   -0.000129   -0.000012
        -0.000129   -0.003454    0.000009
        -0.000012    0.000009    0.000032

siesta: Pressure (static):          1.74851047  kBar

siesta: Stress tensor (total) (eV/Ang**3):
         0.000147   -0.000128   -0.000007
        -0.000128   -0.003454    0.000008
        -0.000007    0.000008    0.000012

siesta: Pressure (total):          1.76000107  kBar

siesta: Temp_ion =      34.080 K

* Maximum dynamic memory allocated =     5 MB

siesta:                 ==============================
                            Begin MD step =     14
                        ==============================

outcell: Unit cell vectors (Ang):
       10.000000    0.000000    0.000000
        0.000000   10.000000    0.000000
        0.000000    0.000000   10.000000

outcell: Cell vector modules (Ang)   :   10.000000   10.000000   10.000000
outcell: Cell angles (23,13,12) (deg):     90.0000     90.0000     90.0000
outcell: Cell volume (Ang**3)        :   1000.0000

siesta: iscf   Eharris(eV)      E_KS(eV)   FreeEng(eV)   dDmax  Ef(eV)
siesta:    1    -1012.5357    -1012.4354    -1012.4354  0.0330 -4.0194
siesta:    2    -1012.5359    -1012.5352    -1012.5352  0.0065 -4.0712
siesta:    3    -1012.5355    -1012.5209    -1012.5209  0.0047 -4.0556
siesta:    4    -1012.5355    -1012.5331    -1012.5331  0.0010 -4.0509
siesta:    5    -1012.5354    -1012.5353    -1012.5353  0.0002 -4.0466
siesta:    6    -1012.5354    -1012.5353    -1012.5353  0.0001 -4.0465
siesta:    7    -1012.5354    -1012.5354    -1012.5354  0.0000 -4.0466

siesta: E_KS(eV) =            -1012.5354

siesta: Atomic forces (eV/Ang):
----------------------------------------
   Tot   -0.039250   -0.037602   -0.003786
----------------------------------------
   Max    1.246032
   Res    0.287566    sqrt( Sum f_i^2 / 3N )
----------------------------------------
   Max    1.246032    constrained

Stress-tensor-Voigt (kbar):       -1.20       -5.47        0.01       -0.30        0.04       -0.02
Target enthalpy (eV/cell)    -1012.5354

siesta: Stress tensor (static) (eV/Ang**3):
        -0.000744   -0.000190   -0.000023
        -0.000190   -0.003411    0.000025
        -0.000023    0.000025    0.000030

siesta: Pressure (static):          2.20343162  kBar

siesta: Stress tensor (total) (eV/Ang**3):
        -0.000746   -0.000190   -0.000015
        -0.000190   -0.003412    0.000023
        -0.000015    0.000023    0.000004

siesta: Pressure (total):          2.21811198  kBar

siesta: Temp_ion =      30.729 K

* Maximum dynamic memory allocated =     5 MB

siesta:                 ==============================
                            Begin MD step =     15
                        ==============================

outcell: Unit cell vectors (Ang):
       10.000000    0.000000    0.000000
        0.000000   10.000000    0.000000
        0.000000    0.000000   10.000000

outcell: Cell vector modules (Ang)   :   10.000000   10.000000   10.000000
outcell: Cell angles (23,13,12) (deg):     90.0000     90.0000     90.0000
outcell: Cell volume (Ang**3)        :   1000.0000

siesta: iscf   Eharris(eV)      E_KS(eV)   FreeEng(eV)   dDmax  Ef(eV)
siesta:    1    -1012.5444    -1012.4031    -1012.4031  0.0104 -3.9920
siesta:    2    -1012.5446    -1012.5417    -1012.5417  0.0115 -4.1264
siesta:    3    -1012.5430    -1012.4872    -1012.4872  0.0024 -4.0598
siesta:    4    -1012.5430    -1012.5238    -1012.5238  0.0010 -4.0644
siesta:    5    -1012.5430    -1012.5418    -1012.5418  0.0005 -4.0617
siesta:    6    -1012.5430    -1012.5423    -1012.5423  0.0003 -4.0616
siesta:    7    -1012.5430    -1012.5430    -1012.5430  0.0000 -4.0617

siesta: E_KS(eV) =            -1012.5431

siesta: Atomic forces (eV/Ang):
----------------------------------------
   Tot   -0.029980   -0.046839   -0.001712
----------------------------------------
   Max    1.268516
   Res    0.308587    sqrt( Sum f_i^2 / 3N )
----------------------------------------
   Max    1.268516    constrained

Stress-tensor-Voigt (kbar):       -0.60       -3.69        0.03       -0.28        0.04       -0.05
Target enthalpy (eV/cell)    -1012.5431

siesta: Stress tensor (static) (eV/Ang**3):
        -0.000373   -0.000178   -0.000037
        -0.000178   -0.002306    0.000027
        -0.000037    0.000027    0.000038

siesta: Pressure (static):          1.41052979  kBar

siesta: Stress tensor (total) (eV/Ang**3):
        -0.000374   -0.000178   -0.000033
        -0.000178   -0.002306    0.000027
        -0.000034    0.000027    0.000016

siesta: Pressure (total):          1.42274850  kBar

siesta: Temp_ion =      36.086 K

* Maximum dynamic memory allocated =     5 MB

siesta:                 ==============================
                            Begin MD step =     16
                        ==============================

outcell: Unit cell vectors (Ang):
       10.000000    0.000000    0.000000
        0.000000   10.000000    0.000000
        0.000000    0.000000   10.000000

outcell: Cell vector modules (Ang)   :   10.000000   10.000000   10.000000
outcell: Cell angles (23,13,12) (deg):     90.0000     90.0000     90.0000
outcell: Cell volume (Ang**3)        :   1000.0000

siesta: iscf   Eharris(eV)      E_KS(eV)   FreeEng(eV)   dDmax  Ef(eV)
siesta:    1    -1012.5639    -1012.5268    -1012.5268  0.0114 -4.1842
siesta:    2    -1012.5635    -1012.5599    -1012.5599  0.0115 -4.0143
siesta:    3    -1012.5618    -1012.5471    -1012.5471  0.0026 -4.1008
siesta:    4    -1012.5618    -1012.5596    -1012.5596  0.0007 -4.0958
siesta:    5    -1012.5618    -1012.5616    -1012.5616  0.0003 -4.0962
siesta:    6    -1012.5618    -1012.5617    -1012.5617  0.0002 -4.0963
siesta:    7    -1012.5618    -1012.5618    -1012.5618  0.0000 -4.0962

siesta: E_KS(eV) =            -1012.5618

siesta: Atomic forces (eV/Ang):
----------------------------------------
   Tot   -0.007497   -0.029833   -0.003854
----------------------------------------
   Max    0.806234
   Res    0.223800    sqrt( Sum f_i^2 / 3N )
----------------------------------------
   Max    0.806234    constrained

Stress-tensor-Voigt (kbar):       -0.80       -2.14        0.05        0.07        0.07       -0.04
Target enthalpy (eV/cell)    -1012.5618

siesta: Stress tensor (static) (eV/Ang**3):
        -0.000499    0.000043   -0.000024
         0.000043   -0.001335    0.000041
        -0.000024    0.000041    0.000047

siesta: Pressure (static):          0.95448171  kBar

siesta: Stress tensor (total) (eV/Ang**3):
        -0.000499    0.000043   -0.000023
         0.000043   -0.001335    0.000041
        -0.000023    0.000041    0.000033

siesta: Pressure (total):          0.96159917  kBar

siesta: Temp_ion =      48.081 K

* Maximum dynamic memory allocated =     5 MB

siesta:                 ==============================
                            Begin MD step =     17
                        ==============================

outcell: Unit cell vectors (Ang):
       10.000000    0.000000    0.000000
        0.000000   10.000000    0.000000
        0.000000    0.000000   10.000000

outcell: Cell vector modules (Ang)   :   10.000000   10.000000   10.000000
outcell: Cell angles (23,13,12) (deg):     90.0000     90.0000     90.0000
outcell: Cell volume (Ang**3)        :   1000.0000

siesta: iscf   Eharris(eV)      E_KS(eV)   FreeEng(eV)   dDmax  Ef(eV)
siesta:    1    -1012.5742    -1012.5311    -1012.5311  0.0040 -4.1422
siesta:    2    -1012.5742    -1012.5739    -1012.5739  0.0053 -4.1408
siesta:    3    -1012.5740    -1012.5656    -1012.5656  0.0016 -4.1412
siesta:    4    -1012.5740    -1012.5726    -1012.5726  0.0006 -4.1413
siesta:    5    -1012.5740    -1012.5737    -1012.5737  0.0001 -4.1415
siesta:    6    -1012.5740    -1012.5739    -1012.5739  0.0001 -4.1415

siesta: E_KS(eV) =            -1012.5740

siesta: Atomic forces (eV/Ang):
----------------------------------------
   Tot   -0.012205   -0.029587   -0.007715
----------------------------------------
   Max    0.481794
   Res    0.180284    sqrt( Sum f_i^2 / 3N )
----------------------------------------
   Max    0.481794    constrained

Stress-tensor-Voigt (kbar):       -0.83        0.02        0.08        0.49        0.06       -0.07
Target enthalpy (eV/cell)    -1012.5740

siesta: Stress tensor (static) (eV/Ang**3):
        -0.000521    0.000308   -0.000043
         0.000308    0.000011    0.000036
        -0.000043    0.000036    0.000057

siesta: Pressure (static):          0.24161571  kBar

siesta: Stress tensor (total) (eV/Ang**3):
        -0.000521    0.000308   -0.000043
         0.000308    0.000011    0.000035
        -0.000043    0.000035    0.000053

siesta: Pressure (total):          0.24387610  kBar

siesta: Temp_ion =      56.779 K

* Maximum dynamic memory allocated =     5 MB

siesta:                 ==============================
                            Begin MD step =     18
                        ==============================

outcell: Unit cell vectors (Ang):
       10.000000    0.000000    0.000000
        0.000000   10.000000    0.000000
        0.000000    0.000000   10.000000

outcell: Cell vector modules (Ang)   :   10.000000   10.000000   10.000000
outcell: Cell angles (23,13,12) (deg):     90.0000     90.0000     90.0000
outcell: Cell volume (Ang**3)        :   1000.0000

siesta: iscf   Eharris(eV)      E_KS(eV)   FreeEng(eV)   dDmax  Ef(eV)
siesta:    1    -1012.5754    -1012.5306    -1012.5306  0.0106 -4.1082
siesta:    2    -1012.5757    -1012.5718    -1012.5718  0.0124 -4.2663
siesta:    3    -1012.5736    -1012.5546    -1012.5546  0.0022 -4.1830
siesta:    4    -1012.5735    -1012.5661    -1012.5661  0.0010 -4.1905
siesta:    5    -1012.5735    -1012.5732    -1012.5732  0.0004 -4.1898
siesta:    6    -1012.5735    -1012.5735    -1012.5735  0.0003 -4.1897
siesta:    7    -1012.5735    -1012.5736    -1012.5736  0.0001 -4.1896

siesta: E_KS(eV) =            -1012.5736

siesta: Atomic forces (eV/Ang):
----------------------------------------
   Tot   -0.036899   -0.012060   -0.000649
----------------------------------------
   Max    0.400280
   Res    0.158115    sqrt( Sum f_i^2 / 3N )
----------------------------------------
   Max    0.400280    constrained

Stress-tensor-Voigt (kbar):        0.59        3.05        0.11        0.64        0.04        0.02
Target enthalpy (eV/cell)    -1012.5736

siesta: Stress tensor (static) (eV/Ang**3):
         0.000370    0.000401    0.000014
         0.000401    0.001905    0.000025
         0.000014    0.000025    0.000072

siesta: Pressure (static):         -1.25313326  kBar

siesta: Stress tensor (total) (eV/Ang**3):
         0.000368    0.000400    0.000013
         0.000400    0.001904    0.000025
         0.000014    0.000025    0.000072

siesta: Pressure (total):         -1.25208801  kBar

siesta: Temp_ion =      56.121 K

* Maximum dynamic memory allocated =     5 MB

siesta:                 ==============================
                            Begin MD step =     19
                        ==============================

outcell: Unit cell vectors (Ang):
       10.000000    0.000000    0.000000
        0.000000   10.000000    0.000000
        0.000000    0.000000   10.000000

outcell: Cell vector modules (Ang)   :   10.000000   10.000000   10.000000
outcell: Cell angles (23,13,12) (deg):     90.0000     90.0000     90.0000
outcell: Cell volume (Ang**3)        :   1000.0000

siesta: iscf   Eharris(eV)      E_KS(eV)   FreeEng(eV)   dDmax  Ef(eV)
siesta:    1    -1012.5613    -1012.6528    -1012.6528  0.0089 -4.3034
siesta:    2    -1012.5615    -1012.5585    -1012.5585  0.0102 -4.1582
siesta:    3    -1012.5599    -1012.5988    -1012.5988  0.0017 -4.2325
siesta:    4    -1012.5599    -1012.5741    -1012.5741  0.0009 -4.2266
siesta:    5    -1012.5599    -1012.5601    -1012.5601  0.0002 -4.2277
siesta:    6    -1012.5599    -1012.5599    -1012.5599  0.0001 -4.2278
siesta:    7    -1012.5599    -1012.5599    -1012.5599  0.0000 -4.2279

siesta: E_KS(eV) =            -1012.5598

siesta: Atomic forces (eV/Ang):
----------------------------------------
   Tot   -0.012433    0.026506   -0.003315
----------------------------------------
   Max    0.785038
   Res    0.214056    sqrt( Sum f_i^2 / 3N )
----------------------------------------
   Max    0.785038    constrained

Stress-tensor-Voigt (kbar):        0.44        4.59        0.11        0.50       -0.01        0.03
Target enthalpy (eV/cell)    -1012.5598

siesta: Stress tensor (static) (eV/Ang**3):
         0.000279    0.000312    0.000017
         0.000312    0.002865   -0.000008
         0.000017   -0.000008    0.000070

siesta: Pressure (static):         -1.71647946  kBar

siesta: Stress tensor (total) (eV/Ang**3):
         0.000276    0.000310    0.000020
         0.000310    0.002863   -0.000006
         0.000020   -0.000006    0.000068

siesta: Pressure (total):         -1.71262937  kBar

siesta: Temp_ion =      46.775 K

* Maximum dynamic memory allocated =     5 MB

siesta:                 ==============================
                            Begin MD step =     20
                        ==============================

outcell: Unit cell vectors (Ang):
       10.000000    0.000000    0.000000
        0.000000   10.000000    0.000000
        0.000000    0.000000   10.000000

outcell: Cell vector modules (Ang)   :   10.000000   10.000000   10.000000
outcell: Cell angles (23,13,12) (deg):     90.0000     90.0000     90.0000
outcell: Cell volume (Ang**3)        :   1000.0000

siesta: iscf   Eharris(eV)      E_KS(eV)   FreeEng(eV)   dDmax  Ef(eV)
siesta:    1    -1012.5431    -1012.6362    -1012.6362  0.0056 -4.2695
siesta:    2    -1012.5430    -1012.5425    -1012.5425  0.0048 -4.2103
siesta:    3    -1012.5428    -1012.5653    -1012.5653  0.0013 -4.2324
siesta:    4    -1012.5428    -1012.5468    -1012.5468  0.0006 -4.2366
siesta:    5    -1012.5427    -1012.5431    -1012.5431  0.0003 -4.2384
siesta:    6    -1012.5427    -1012.5429    -1012.5429  0.0002 -4.2384
siesta:    7    -1012.5427    -1012.5427    -1012.5427  0.0000 -4.2383

siesta: E_KS(eV) =            -1012.5427

siesta: Atomic forces (eV/Ang):
----------------------------------------
   Tot   -0.003018    0.011197   -0.001548
----------------------------------------
   Max    1.138169
   Res    0.301111    sqrt( Sum f_i^2 / 3N )
----------------------------------------
   Max    1.138169    constrained

Stress-tensor-Voigt (kbar):       -0.76        4.70        0.07        0.17       -0.06        0.00
Target enthalpy (eV/cell)    -1012.5427

siesta: Stress tensor (static) (eV/Ang**3):
        -0.000473    0.000107   -0.000006
         0.000107    0.002935   -0.000040
        -0.000006   -0.000040    0.000053

siesta: Pressure (static):         -1.34302078  kBar

siesta: Stress tensor (total) (eV/Ang**3):
        -0.000475    0.000105   -0.000003
         0.000105    0.002932   -0.000035
        -0.000002   -0.000035    0.000043

siesta: Pressure (total):         -1.33526902  kBar

siesta: Temp_ion =      35.863 K

* Maximum dynamic memory allocated =     5 MB

siesta:                 ==============================
                            Begin MD step =     21
                        ==============================

outcell: Unit cell vectors (Ang):
       10.000000    0.000000    0.000000
        0.000000   10.000000    0.000000
        0.000000    0.000000   10.000000

outcell: Cell vector modules (Ang)   :   10.000000   10.000000   10.000000
outcell: Cell angles (23,13,12) (deg):     90.0000     90.0000     90.0000
outcell: Cell volume (Ang**3)        :   1000.0000

siesta: iscf   Eharris(eV)      E_KS(eV)   FreeEng(eV)   dDmax  Ef(eV)
siesta:    1    -1012.5406    -1012.5546    -1012.5546  0.0128 -4.1201
siesta:    2    -1012.5404    -1012.5355    -1012.5355  0.0129 -4.3113
siesta:    3    -1012.5379    -1012.5452    -1012.5452  0.0022 -4.2103
siesta:    4    -1012.5379    -1012.5401    -1012.5401  0.0010 -4.2184
siesta:    5    -1012.5379    -1012.5380    -1012.5380  0.0004 -4.2184
siesta:    6    -1012.5379    -1012.5379    -1012.5379  0.0003 -4.2182
siesta:    7    -1012.5379    -1012.5379    -1012.5379  0.0001 -4.2180

siesta: E_KS(eV) =            -1012.5379

siesta: Atomic forces (eV/Ang):
----------------------------------------
   Tot   -0.006642    0.000172   -0.002318
----------------------------------------
   Max    1.056219
   Res    0.280692    sqrt( Sum f_i^2 / 3N )
----------------------------------------
   Max    1.056219    constrained

Stress-tensor-Voigt (kbar):       -0.53        4.55        0.03       -0.25       -0.06        0.06
Target enthalpy (eV/cell)    -1012.5379

siesta: Stress tensor (static) (eV/Ang**3):
        -0.000333   -0.000154    0.000031
        -0.000154    0.002842   -0.000046
         0.000031   -0.000046    0.000035

siesta: Pressure (static):         -1.35892598  kBar

siesta: Stress tensor (total) (eV/Ang**3):
        -0.000333   -0.000156    0.000034
        -0.000155    0.002840   -0.000040
         0.000035   -0.000039    0.000018

siesta: Pressure (total):         -1.34814594  kBar

siesta: Temp_ion =      32.072 K

* Maximum dynamic memory allocated =     5 MB

siesta:                 ==============================
                            Begin MD step =     22
                        ==============================

outcell: Unit cell vectors (Ang):
       10.000000    0.000000    0.000000
        0.000000   10.000000    0.000000
        0.000000    0.000000   10.000000

outcell: Cell vector modules (Ang)   :   10.000000   10.000000   10.000000
outcell: Cell angles (23,13,12) (deg):     90.0000     90.0000     90.0000
outcell: Cell volume (Ang**3)        :   1000.0000

siesta: iscf   Eharris(eV)      E_KS(eV)   FreeEng(eV)   dDmax  Ef(eV)
siesta:    1    -1012.5464    -1012.6226    -1012.6226  0.0058 -4.2151
siesta:    2    -1012.5466    -1012.5451    -1012.5451  0.0087 -4.1382
siesta:    3    -1012.5458    -1012.5719    -1012.5719  0.0023 -4.1729
siesta:    4    -1012.5458    -1012.5523    -1012.5523  0.0009 -4.1715
siesta:    5    -1012.5458    -1012.5465    -1012.5465  0.0002 -4.1748
siesta:    6    -1012.5458    -1012.5461    -1012.5461  0.0002 -4.1751
siesta:    7    -1012.5458    -1012.5458    -1012.5458  0.0001 -4.1752

siesta: E_KS(eV) =            -1012.5457

siesta: Atomic forces (eV/Ang):
----------------------------------------
   Tot   -0.000605   -0.008829   -0.001935
----------------------------------------
   Max    0.966106
   Res    0.261301    sqrt( Sum f_i^2 / 3N )
----------------------------------------
   Max    0.966106    constrained

Stress-tensor-Voigt (kbar):       -1.17        3.02       -0.01       -0.60       -0.06        0.03
Target enthalpy (eV/cell)    -1012.5457

siesta: Stress tensor (static) (eV/Ang**3):
        -0.000733   -0.000374    0.000016
        -0.000374    0.001883   -0.000038
         0.000016   -0.000038    0.000013

siesta: Pressure (static):         -0.62119353  kBar

siesta: Stress tensor (total) (eV/Ang**3):
        -0.000733   -0.000374    0.000018
        -0.000374    0.001882   -0.000034
         0.000018   -0.000034   -0.000007

siesta: Pressure (total):         -0.61012635  kBar

siesta: Temp_ion =      37.498 K

* Maximum dynamic memory allocated =     5 MB

siesta:                 ==============================
                            Begin MD step =     23
                        ==============================

outcell: Unit cell vectors (Ang):
       10.000000    0.000000    0.000000
        0.000000   10.000000    0.000000
        0.000000    0.000000   10.000000

outcell: Cell vector modules (Ang)   :   10.000000   10.000000   10.000000
outcell: Cell angles (23,13,12) (deg):     90.0000     90.0000     90.0000
outcell: Cell volume (Ang**3)        :   1000.0000

siesta: iscf   Eharris(eV)      E_KS(eV)   FreeEng(eV)   dDmax  Ef(eV)
siesta:    1    -1012.5610    -1012.6133    -1012.6133  0.0302 -4.1856
siesta:    2    -1012.5611    -1012.5585    -1012.5585  0.0094 -4.0653
siesta:    3    -1012.5598    -1012.5754    -1012.5754  0.0090 -4.1154
siesta:    4    -1012.5597    -1012.5625    -1012.5625  0.0017 -4.1186
siesta:    5    -1012.5597    -1012.5599    -1012.5599  0.0004 -4.1228
siesta:    6    -1012.5597    -1012.5598    -1012.5598  0.0003 -4.1231
siesta:    7    -1012.5597    -1012.5597    -1012.5597  0.0001 -4.1231

siesta: E_KS(eV) =            -1012.5597

siesta: Atomic forces (eV/Ang):
----------------------------------------
   Tot   -0.003162   -0.005132   -0.000487
----------------------------------------
   Max    0.849890
   Res    0.210962    sqrt( Sum f_i^2 / 3N )
----------------------------------------
   Max    0.849890    constrained

Stress-tensor-Voigt (kbar):       -3.15        0.63       -0.02       -0.61       -0.05        0.01
Target enthalpy (eV/cell)    -1012.5597

siesta: Stress tensor (static) (eV/Ang**3):
        -0.001968   -0.000383    0.000012
        -0.000383    0.000394   -0.000030
         0.000012   -0.000030    0.000002

siesta: Pressure (static):          0.83959276  kBar

siesta: Stress tensor (total) (eV/Ang**3):
        -0.001969   -0.000383    0.000008
        -0.000383    0.000394   -0.000028
         0.000008   -0.000028   -0.000015

siesta: Pressure (total):          0.84968272  kBar

siesta: Temp_ion =      47.099 K

* Maximum dynamic memory allocated =     5 MB

siesta:                 ==============================
                            Begin MD step =     24
                        ==============================

outcell: Unit cell vectors (Ang):
       10.000000    0.000000    0.000000
        0.000000   10.000000    0.000000
        0.000000    0.000000   10.000000

outcell: Cell vector modules (Ang)   :   10.000000   10.000000   10.000000
outcell: Cell angles (23,13,12) (deg):     90.0000     90.0000     90.0000
outcell: Cell volume (Ang**3)        :   1000.0000

siesta: iscf   Eharris(eV)      E_KS(eV)   FreeEng(eV)   dDmax  Ef(eV)
siesta:    1    -1012.5709    -1012.4930    -1012.4930  0.0116 -3.9842
siesta:    2    -1012.5708    -1012.5667    -1012.5667  0.0119 -4.1637
siesta:    3    -1012.5687    -1012.5359    -1012.5359  0.0017 -4.0702
siesta:    4    -1012.5687    -1012.5603    -1012.5603  0.0007 -4.0770
siesta:    5    -1012.5687    -1012.5687    -1012.5687  0.0003 -4.0772
siesta:    6    -1012.5687    -1012.5688    -1012.5688  0.0002 -4.0770
siesta:    7    -1012.5687    -1012.5687    -1012.5687  0.0001 -4.0768

siesta: E_KS(eV) =            -1012.5687

siesta: Atomic forces (eV/Ang):
----------------------------------------
   Tot    0.013708   -0.003804   -0.000227
----------------------------------------
   Max    0.597037
   Res    0.208598    sqrt( Sum f_i^2 / 3N )
----------------------------------------
   Max    0.597037    constrained

Stress-tensor-Voigt (kbar):       -3.45       -0.43       -0.01       -0.44       -0.03       -0.03
Target enthalpy (eV/cell)    -1012.5687

siesta: Stress tensor (static) (eV/Ang**3):
        -0.002149   -0.000274   -0.000011
        -0.000274   -0.000268   -0.000018
        -0.000011   -0.000018    0.000009

siesta: Pressure (static):          1.28612250  kBar

siesta: Stress tensor (total) (eV/Ang**3):
        -0.002152   -0.000275   -0.000016
        -0.000275   -0.000268   -0.000019
        -0.000016   -0.000019   -0.000003

siesta: Pressure (total):          1.29395536  kBar

siesta: Temp_ion =      52.670 K

* Maximum dynamic memory allocated =     5 MB

siesta:                 ==============================
                            Begin MD step =     25
                        ==============================

outcell: Unit cell vectors (Ang):
       10.000000    0.000000    0.000000
        0.000000   10.000000    0.000000
        0.000000    0.000000   10.000000

outcell: Cell vector modules (Ang)   :   10.000000   10.000000   10.000000
outcell: Cell angles (23,13,12) (deg):     90.0000     90.0000     90.0000
outcell: Cell volume (Ang**3)        :   1000.0000

siesta: iscf   Eharris(eV)      E_KS(eV)   FreeEng(eV)   dDmax  Ef(eV)
siesta:    1    -1012.5661    -1012.5135    -1012.5135  0.0314 -4.0723
siesta:    2    -1012.5662    -1012.5658    -1012.5658  0.0050 -4.0360
siesta:    3    -1012.5660    -1012.5613    -1012.5613  0.0027 -4.0454
siesta:    4    -1012.5660    -1012.5654    -1012.5654  0.0006 -4.0502
siesta:    5    -1012.5660    -1012.5659    -1012.5659  0.0002 -4.0535
siesta:    6    -1012.5660    -1012.5659    -1012.5659  0.0001 -4.0536
siesta:    7    -1012.5660    -1012.5659    -1012.5659  0.0000 -4.0536

siesta: E_KS(eV) =            -1012.5660

siesta: Atomic forces (eV/Ang):
----------------------------------------
   Tot   -0.001306   -0.037685    0.002403
----------------------------------------
   Max    0.840327
   Res    0.268370    sqrt( Sum f_i^2 / 3N )
----------------------------------------
   Max    0.840327    constrained

Stress-tensor-Voigt (kbar):       -3.75       -0.92        0.03       -0.27       -0.02       -0.06
Target enthalpy (eV/cell)    -1012.5660

siesta: Stress tensor (static) (eV/Ang**3):
        -0.002340   -0.000170   -0.000037
        -0.000170   -0.000572   -0.000009
        -0.000037   -0.000009    0.000026

siesta: Pressure (static):          1.54114567  kBar

siesta: Stress tensor (total) (eV/Ang**3):
        -0.002341   -0.000171   -0.000040
        -0.000171   -0.000573   -0.000012
        -0.000040   -0.000012    0.000020

siesta: Pressure (total):          1.54595169  kBar

siesta: Temp_ion =      51.640 K

* Maximum dynamic memory allocated =     5 MB

siesta:                 ==============================
                            Begin MD step =     26
                        ==============================

outcell: Unit cell vectors (Ang):
       10.000000    0.000000    0.000000
        0.000000   10.000000    0.000000
        0.000000    0.000000   10.000000

outcell: Cell vector modules (Ang)   :   10.000000   10.000000   10.000000
outcell: Cell angles (23,13,12) (deg):     90.0000     90.0000     90.0000
outcell: Cell volume (Ang**3)        :   1000.0000

siesta: iscf   Eharris(eV)      E_KS(eV)   FreeEng(eV)   dDmax  Ef(eV)
siesta:    1    -1012.5636    -1012.5203    -1012.5203  0.0315 -4.1506
siesta:    2    -1012.5635    -1012.5595    -1012.5595  0.0114 -3.9829
siesta:    3    -1012.5615    -1012.5488    -1012.5488  0.0093 -4.0528
siesta:    4    -1012.5614    -1012.5588    -1012.5588  0.0017 -4.0568
siesta:    5    -1012.5614    -1012.5611    -1012.5611  0.0004 -4.0634
siesta:    6    -1012.5614    -1012.5612    -1012.5612  0.0003 -4.0636
siesta:    7    -1012.5614    -1012.5614    -1012.5614  0.0000 -4.0637

siesta: E_KS(eV) =            -1012.5614

siesta: Atomic forces (eV/Ang):
----------------------------------------
   Tot   -0.000150   -0.029536    0.000762
----------------------------------------
   Max    0.725097
   Res    0.230961    sqrt( Sum f_i^2 / 3N )
----------------------------------------
   Max    0.725097    constrained

Stress-tensor-Voigt (kbar):       -4.88       -1.15        0.06       -0.14       -0.01        0.04
Target enthalpy (eV/cell)    -1012.5614

siesta: Stress tensor (static) (eV/Ang**3):
        -0.003047   -0.000084    0.000029
        -0.000084   -0.000714   -0.000004
         0.000029   -0.000004    0.000042

siesta: Pressure (static):          1.98596065  kBar

siesta: Stress tensor (total) (eV/Ang**3):
        -0.003049   -0.000086    0.000027
        -0.000086   -0.000715   -0.000005
         0.000027   -0.000005    0.000040

siesta: Pressure (total):          1.98843535  kBar

siesta: Temp_ion =      48.520 K

* Maximum dynamic memory allocated =     5 MB

siesta:                 ==============================
                            Begin MD step =     27
                        ==============================

outcell: Unit cell vectors (Ang):
       10.000000    0.000000    0.000000
        0.000000   10.000000    0.000000
        0.000000    0.000000   10.000000

outcell: Cell vector modules (Ang)   :   10.000000   10.000000   10.000000
outcell: Cell angles (23,13,12) (deg):     90.0000     90.0000     90.0000
outcell: Cell volume (Ang**3)        :   1000.0000

siesta: iscf   Eharris(eV)      E_KS(eV)   FreeEng(eV)   dDmax  Ef(eV)
siesta:    1    -1012.5621    -1012.4289    -1012.4289  0.0315 -4.0205
siesta:    2    -1012.5624    -1012.5593    -1012.5593  0.0105 -4.1704
siesta:    3    -1012.5607    -1012.5199    -1012.5199  0.0097 -4.1065
siesta:    4    -1012.5607    -1012.5522    -1012.5522  0.0020 -4.1036
siesta:    5    -1012.5607    -1012.5604    -1012.5604  0.0002 -4.0987
siesta:    6    -1012.5607    -1012.5605    -1012.5605  0.0001 -4.0986
siesta:    7    -1012.5607    -1012.5606    -1012.5606  0.0000 -4.0984

siesta: E_KS(eV) =            -1012.5607

siesta: Atomic forces (eV/Ang):
----------------------------------------
   Tot    0.004946   -0.045721    0.003161
----------------------------------------
   Max    0.747788
   Res    0.258329    sqrt( Sum f_i^2 / 3N )
----------------------------------------
   Max    0.747788    constrained

Stress-tensor-Voigt (kbar):       -3.74        0.04        0.08       -0.07       -0.04        0.05
Target enthalpy (eV/cell)    -1012.5607

siesta: Stress tensor (static) (eV/Ang**3):
        -0.002331   -0.000042    0.000029
        -0.000042    0.000027   -0.000024
         0.000029   -0.000024    0.000048

siesta: Pressure (static):          1.20466506  kBar

siesta: Stress tensor (total) (eV/Ang**3):
        -0.002332   -0.000043    0.000029
        -0.000043    0.000027   -0.000025
         0.000029   -0.000025    0.000048

siesta: Pressure (total):          1.20538487  kBar

siesta: Temp_ion =      47.872 K

* Maximum dynamic memory allocated =     5 MB

siesta:                 ==============================
                            Begin MD step =     28
                        ==============================

outcell: Unit cell vectors (Ang):
       10.000000    0.000000    0.000000
        0.000000   10.000000    0.000000
        0.000000    0.000000   10.000000

outcell: Cell vector modules (Ang)   :   10.000000   10.000000   10.000000
outcell: Cell angles (23,13,12) (deg):     90.0000     90.0000     90.0000
outcell: Cell volume (Ang**3)        :   1000.0000

siesta: iscf   Eharris(eV)      E_KS(eV)   FreeEng(eV)   dDmax  Ef(eV)
siesta:    1    -1012.5665    -1012.4966    -1012.4966  0.0054 -4.1221
siesta:    2    -1012.5665    -1012.5661    -1012.5661  0.0057 -4.1587
siesta:    3    -1012.5663    -1012.5538    -1012.5538  0.0019 -4.1466
siesta:    4    -1012.5663    -1012.5634    -1012.5634  0.0009 -4.1437
siesta:    5    -1012.5663    -1012.5659    -1012.5659  0.0002 -4.1408
siesta:    6    -1012.5663    -1012.5660    -1012.5660  0.0002 -4.1408
siesta:    7    -1012.5663    -1012.5662    -1012.5662  0.0000 -4.1411

siesta: E_KS(eV) =            -1012.5663

siesta: Atomic forces (eV/Ang):
----------------------------------------
   Tot   -0.008124   -0.048993    0.008844
----------------------------------------
   Max    0.749094
   Res    0.256591    sqrt( Sum f_i^2 / 3N )
----------------------------------------
   Max    0.749094    constrained

Stress-tensor-Voigt (kbar):       -1.00        1.11        0.07        0.08       -0.08        0.02
Target enthalpy (eV/cell)    -1012.5663

siesta: Stress tensor (static) (eV/Ang**3):
        -0.000626    0.000047    0.000015
         0.000047    0.000696   -0.000053
         0.000015   -0.000053    0.000043

siesta: Pressure (static):         -0.06041969  kBar

siesta: Stress tensor (total) (eV/Ang**3):
        -0.000626    0.000048    0.000015
         0.000048    0.000695   -0.000053
         0.000015   -0.000053    0.000043

siesta: Pressure (total):         -0.05975492  kBar

siesta: Temp_ion =      52.135 K

* Maximum dynamic memory allocated =     5 MB

siesta:                 ==============================
                            Begin MD step =     29
                        ==============================

outcell: Unit cell vectors (Ang):
       10.000000    0.000000    0.000000
        0.000000   10.000000    0.000000
        0.000000    0.000000   10.000000

outcell: Cell vector modules (Ang)   :   10.000000   10.000000   10.000000
outcell: Cell angles (23,13,12) (deg):     90.0000     90.0000     90.0000
outcell: Cell volume (Ang**3)        :   1000.0000

siesta: iscf   Eharris(eV)      E_KS(eV)   FreeEng(eV)   dDmax  Ef(eV)
siesta:    1    -1012.5793    -1012.6180    -1012.6180  0.0120 -4.2720
siesta:    2    -1012.5790    -1012.5748    -1012.5748  0.0123 -4.0903
siesta:    3    -1012.5769    -1012.5938    -1012.5938  0.0020 -4.1825
siesta:    4    -1012.5769    -1012.5805    -1012.5805  0.0007 -4.1771
siesta:    5    -1012.5769    -1012.5772    -1012.5772  0.0003 -4.1776
siesta:    6    -1012.5769    -1012.5770    -1012.5770  0.0002 -4.1777
siesta:    7    -1012.5769    -1012.5768    -1012.5768  0.0000 -4.1777

siesta: E_KS(eV) =            -1012.5768

siesta: Atomic forces (eV/Ang):
----------------------------------------
   Tot    0.015912   -0.034033    0.005588
----------------------------------------
   Max    0.722549
   Res    0.207446    sqrt( Sum f_i^2 / 3N )
----------------------------------------
   Max    0.722549    constrained

Stress-tensor-Voigt (kbar):        0.74        0.76        0.05        0.24       -0.06        0.06
Target enthalpy (eV/cell)    -1012.5768

siesta: Stress tensor (static) (eV/Ang**3):
         0.000464    0.000149    0.000037
         0.000149    0.000472   -0.000040
         0.000037   -0.000040    0.000030

siesta: Pressure (static):         -0.51547781  kBar

siesta: Stress tensor (total) (eV/Ang**3):
         0.000462    0.000149    0.000036
         0.000149    0.000472   -0.000040
         0.000036   -0.000040    0.000029

siesta: Pressure (total):         -0.51454598  kBar

siesta: Temp_ion =      58.328 K

* Maximum dynamic memory allocated =     5 MB

siesta:                 ==============================
                            Begin MD step =     30
                        ==============================

outcell: Unit cell vectors (Ang):
       10.000000    0.000000    0.000000
        0.000000   10.000000    0.000000
        0.000000    0.000000   10.000000

outcell: Cell vector modules (Ang)   :   10.000000   10.000000   10.000000
outcell: Cell angles (23,13,12) (deg):     90.0000     90.0000     90.0000
outcell: Cell volume (Ang**3)        :   1000.0000

siesta: iscf   Eharris(eV)      E_KS(eV)   FreeEng(eV)   dDmax  Ef(eV)
siesta:    1    -1012.5751    -1012.5824    -1012.5824  0.0062 -4.1523
siesta:    2    -1012.5755    -1012.5736    -1012.5736  0.0099 -4.2473
siesta:    3    -1012.5744    -1012.5778    -1012.5778  0.0016 -4.1974
siesta:    4    -1012.5743    -1012.5755    -1012.5755  0.0010 -4.2041
siesta:    5    -1012.5743    -1012.5744    -1012.5744  0.0002 -4.2013
siesta:    6    -1012.5743    -1012.5743    -1012.5743  0.0002 -4.2011
siesta:    7    -1012.5743    -1012.5743    -1012.5743  0.0000 -4.2010

siesta: E_KS(eV) =            -1012.5743

siesta: Atomic forces (eV/Ang):
----------------------------------------
   Tot    0.020399   -0.040255    0.002359
----------------------------------------
   Max    0.718065
   Res    0.211998    sqrt( Sum f_i^2 / 3N )
----------------------------------------
   Max    0.718065    constrained

Stress-tensor-Voigt (kbar):        3.20        0.59        0.05        0.45       -0.03        0.02
Target enthalpy (eV/cell)    -1012.5743

siesta: Stress tensor (static) (eV/Ang**3):
         0.001999    0.000282    0.000011
         0.000282    0.000366   -0.000016
         0.000011   -0.000016    0.000030

siesta: Pressure (static):         -1.27873635  kBar

siesta: Stress tensor (total) (eV/Ang**3):
         0.001997    0.000282    0.000009
         0.000282    0.000366   -0.000016
         0.000009   -0.000016    0.000029

siesta: Pressure (total):         -1.27741301  kBar

siesta: Temp_ion =      56.256 K

* Maximum dynamic memory allocated =     5 MB

siesta:                 ==============================
                            Begin MD step =     31
                        ==============================

outcell: Unit cell vectors (Ang):
       10.000000    0.000000    0.000000
        0.000000   10.000000    0.000000
        0.000000    0.000000   10.000000

outcell: Cell vector modules (Ang)   :   10.000000   10.000000   10.000000
outcell: Cell angles (23,13,12) (deg):     90.0000     90.0000     90.0000
outcell: Cell volume (Ang**3)        :   1000.0000

siesta: iscf   Eharris(eV)      E_KS(eV)   FreeEng(eV)   dDmax  Ef(eV)
siesta:    1    -1012.5540    -1012.5972    -1012.5972  0.0076 -4.1603
siesta:    2    -1012.5544    -1012.5520    -1012.5520  0.0129 -4.2627
siesta:    3    -1012.5530    -1012.5744    -1012.5744  0.0015 -4.2051
siesta:    4    -1012.5530    -1012.5617    -1012.5617  0.0008 -4.2132
siesta:    5    -1012.5530    -1012.5538    -1012.5538  0.0003 -4.2124
siesta:    6    -1012.5530    -1012.5533    -1012.5533  0.0002 -4.2122
siesta:    7    -1012.5530    -1012.5530    -1012.5530  0.0001 -4.2123

siesta: E_KS(eV) =            -1012.5529

siesta: Atomic forces (eV/Ang):
----------------------------------------
   Tot    0.024408   -0.053926    0.007064
----------------------------------------
   Max    0.610130
   Res    0.217984    sqrt( Sum f_i^2 / 3N )
----------------------------------------
   Max    0.610130    constrained

Stress-tensor-Voigt (kbar):        5.72        0.37        0.08        0.56        0.02        0.01
Target enthalpy (eV/cell)    -1012.5529

siesta: Stress tensor (static) (eV/Ang**3):
         0.003574    0.000352    0.000005
         0.000352    0.000233    0.000011
         0.000005    0.000011    0.000048

siesta: Pressure (static):         -2.05820033  kBar

siesta: Stress tensor (total) (eV/Ang**3):
         0.003570    0.000352    0.000003
         0.000352    0.000232    0.000012
         0.000003    0.000012    0.000047

siesta: Pressure (total):         -2.05593924  kBar

siesta: Temp_ion =      42.090 K

* Maximum dynamic memory allocated =     5 MB

siesta:                 ==============================
                            Begin MD step =     32
                        ==============================

outcell: Unit cell vectors (Ang):
       10.000000    0.000000    0.000000
        0.000000   10.000000    0.000000
        0.000000    0.000000   10.000000

outcell: Cell vector modules (Ang)   :   10.000000   10.000000   10.000000
outcell: Cell angles (23,13,12) (deg):     90.0000     90.0000     90.0000
[...]
----------------------------------------
   Max    0.958233
   Res    0.241476    sqrt( Sum f_i^2 / 3N )
----------------------------------------
   Max    0.958233    constrained

Stress-tensor-Voigt (kbar):       -2.05       -0.20       -0.01       -0.30        0.01        0.01
Target enthalpy (eV/cell)    -1012.6000

siesta: Stress tensor (static) (eV/Ang**3):
        -0.001280   -0.000189    0.000007
        -0.000189   -0.000125    0.000009
         0.000007    0.000009   -0.000007

siesta: Pressure (static):          0.75390838  kBar

siesta: Stress tensor (total) (eV/Ang**3):
        -0.001280   -0.000189    0.000008
        -0.000189   -0.000125    0.000008
         0.000008    0.000008   -0.000009

siesta: Pressure (total):          0.75522364  kBar

siesta: Temp_ion =      78.767 K

* Maximum dynamic memory allocated =     5 MB

siesta:                 ==============================
                            Begin MD step =    995
                        ==============================

outcell: Unit cell vectors (Ang):
       10.000000    0.000000    0.000000
        0.000000   10.000000    0.000000
        0.000000    0.000000   10.000000

outcell: Cell vector modules (Ang)   :   10.000000   10.000000   10.000000
outcell: Cell angles (23,13,12) (deg):     90.0000     90.0000     90.0000
outcell: Cell volume (Ang**3)        :   1000.0000

siesta: iscf   Eharris(eV)      E_KS(eV)   FreeEng(eV)   dDmax  Ef(eV)
siesta:    1    -1012.5757    -1012.5529    -1012.5529  0.0222 -4.1031
siesta:    2    -1012.5730    -1012.5693    -1012.5693  0.0152 -4.0494
siesta:    3    -1012.5715    -1012.5647    -1012.5647  0.0042 -4.0749
siesta:    4    -1012.5713    -1012.5685    -1012.5685  0.0015 -4.0756
siesta:    5    -1012.5712    -1012.5709    -1012.5709  0.0003 -4.0768
siesta:    6    -1012.5712    -1012.5712    -1012.5712  0.0002 -4.0762
siesta:    7    -1012.5712    -1012.5713    -1012.5713  0.0001 -4.0753
siesta:    8    -1012.5712    -1012.5713    -1012.5713  0.0000 -4.0751

siesta: E_KS(eV) =            -1012.5713

siesta: Atomic forces (eV/Ang):
----------------------------------------
   Tot    0.080629    0.024116   -0.005774
----------------------------------------
   Max    0.751374
   Res    0.289928    sqrt( Sum f_i^2 / 3N )
----------------------------------------
   Max    0.751374    constrained

Stress-tensor-Voigt (kbar):       -1.28       -3.79        0.01       -0.66       -0.04        0.05
Target enthalpy (eV/cell)    -1012.5713

siesta: Stress tensor (static) (eV/Ang**3):
        -0.000796   -0.000414    0.000026
        -0.000414   -0.002365   -0.000021
         0.000026   -0.000021    0.000008

siesta: Pressure (static):          1.68398803  kBar

siesta: Stress tensor (total) (eV/Ang**3):
        -0.000798   -0.000413    0.000028
        -0.000413   -0.002366   -0.000022
         0.000028   -0.000022    0.000005

siesta: Pressure (total):          1.68691495  kBar

siesta: Temp_ion =      59.965 K

* Maximum dynamic memory allocated =     5 MB

siesta:                 ==============================
                            Begin MD step =    996
                        ==============================

outcell: Unit cell vectors (Ang):
       10.000000    0.000000    0.000000
        0.000000   10.000000    0.000000
        0.000000    0.000000   10.000000

outcell: Cell vector modules (Ang)   :   10.000000   10.000000   10.000000
outcell: Cell angles (23,13,12) (deg):     90.0000     90.0000     90.0000
outcell: Cell volume (Ang**3)        :   1000.0000

siesta: iscf   Eharris(eV)      E_KS(eV)   FreeEng(eV)   dDmax  Ef(eV)
siesta:    1    -1012.5468    -1012.4174    -1012.4174  0.0257 -3.9947
siesta:    2    -1012.5440    -1012.5377    -1012.5377  0.0175 -4.1700
siesta:    3    -1012.5412    -1012.4938    -1012.4938  0.0050 -4.0849
siesta:    4    -1012.5410    -1012.5241    -1012.5241  0.0019 -4.0835
siesta:    5    -1012.5409    -1012.5376    -1012.5376  0.0008 -4.0823
siesta:    6    -1012.5409    -1012.5401    -1012.5401  0.0005 -4.0831
siesta:    7    -1012.5409    -1012.5411    -1012.5411  0.0001 -4.0846

siesta: E_KS(eV) =            -1012.5411

siesta: Atomic forces (eV/Ang):
----------------------------------------
   Tot    0.079271    0.013153   -0.005535
----------------------------------------
   Max    1.034471
   Res    0.322525    sqrt( Sum f_i^2 / 3N )
----------------------------------------
   Max    1.034471    constrained

Stress-tensor-Voigt (kbar):       -0.56       -3.57        0.05        0.75       -0.03       -0.05
Target enthalpy (eV/cell)    -1012.5411

siesta: Stress tensor (static) (eV/Ang**3):
        -0.000346    0.000469   -0.000031
         0.000469   -0.002228   -0.000016
        -0.000031   -0.000016    0.000035

siesta: Pressure (static):          1.35581411  kBar

siesta: Stress tensor (total) (eV/Ang**3):
        -0.000346    0.000469   -0.000030
         0.000469   -0.002228   -0.000016
        -0.000030   -0.000016    0.000032

siesta: Pressure (total):          1.35757039  kBar

siesta: Temp_ion =      38.409 K

* Maximum dynamic memory allocated =     5 MB

siesta:                 ==============================
                            Begin MD step =    997
                        ==============================

outcell: Unit cell vectors (Ang):
       10.000000    0.000000    0.000000
        0.000000   10.000000    0.000000
        0.000000    0.000000   10.000000

outcell: Cell vector modules (Ang)   :   10.000000   10.000000   10.000000
outcell: Cell angles (23,13,12) (deg):     90.0000     90.0000     90.0000
outcell: Cell volume (Ang**3)        :   1000.0000

siesta: iscf   Eharris(eV)      E_KS(eV)   FreeEng(eV)   dDmax  Ef(eV)
siesta:    1    -1012.5269    -1012.4673    -1012.4673  0.0334 -4.1523
siesta:    2    -1012.5260    -1012.5203    -1012.5203  0.0222 -4.0555
siesta:    3    -1012.5230    -1012.5049    -1012.5049  0.0109 -4.0971
siesta:    4    -1012.5228    -1012.5174    -1012.5174  0.0032 -4.0959
siesta:    5    -1012.5228    -1012.5221    -1012.5221  0.0009 -4.1037
siesta:    6    -1012.5228    -1012.5225    -1012.5225  0.0005 -4.1033
siesta:    7    -1012.5228    -1012.5228    -1012.5228  0.0001 -4.1018

siesta: E_KS(eV) =            -1012.5229

siesta: Atomic forces (eV/Ang):
----------------------------------------
   Tot    0.099724   -0.008003   -0.008082
----------------------------------------
   Max    1.616555
   Res    0.378310    sqrt( Sum f_i^2 / 3N )
----------------------------------------
   Max    1.616555    constrained

Stress-tensor-Voigt (kbar):       -0.67       -2.60        0.07        1.12        0.03        0.02
Target enthalpy (eV/cell)    -1012.5229

siesta: Stress tensor (static) (eV/Ang**3):
        -0.000417    0.000701    0.000012
         0.000701   -0.001621    0.000020
         0.000012    0.000020    0.000047

siesta: Pressure (static):          1.06333918  kBar

siesta: Stress tensor (total) (eV/Ang**3):
        -0.000417    0.000701    0.000012
         0.000701   -0.001621    0.000021
         0.000012    0.000021    0.000044

siesta: Pressure (total):          1.06499250  kBar

siesta: Temp_ion =      27.132 K

* Maximum dynamic memory allocated =     5 MB

siesta:                 ==============================
                            Begin MD step =    998
                        ==============================

outcell: Unit cell vectors (Ang):
       10.000000    0.000000    0.000000
        0.000000   10.000000    0.000000
        0.000000    0.000000   10.000000

outcell: Cell vector modules (Ang)   :   10.000000   10.000000   10.000000
outcell: Cell angles (23,13,12) (deg):     90.0000     90.0000     90.0000
outcell: Cell volume (Ang**3)        :   1000.0000

siesta: iscf   Eharris(eV)      E_KS(eV)   FreeEng(eV)   dDmax  Ef(eV)
siesta:    1    -1012.5410    -1012.4909    -1012.4909  0.0261 -4.1684
siesta:    2    -1012.5390    -1012.5326    -1012.5326  0.0270 -4.0706
siesta:    3    -1012.5359    -1012.5183    -1012.5183  0.0070 -4.1185
siesta:    4    -1012.5356    -1012.5285    -1012.5285  0.0026 -4.1167
siesta:    5    -1012.5356    -1012.5339    -1012.5339  0.0007 -4.1209
siesta:    6    -1012.5356    -1012.5350    -1012.5350  0.0004 -4.1205
siesta:    7    -1012.5356    -1012.5357    -1012.5357  0.0001 -4.1190
siesta:    8    -1012.5356    -1012.5357    -1012.5357  0.0000 -4.1185

siesta: E_KS(eV) =            -1012.5357

siesta: Atomic forces (eV/Ang):
----------------------------------------
   Tot    0.127725    0.013876   -0.008823
----------------------------------------
   Max    0.776593
   Res    0.297308    sqrt( Sum f_i^2 / 3N )
----------------------------------------
   Max    0.776593    constrained

Stress-tensor-Voigt (kbar):        1.44       -4.02        0.06        0.30        0.06        0.05
Target enthalpy (eV/cell)    -1012.5357

siesta: Stress tensor (static) (eV/Ang**3):
         0.000897    0.000187    0.000026
         0.000187   -0.002507    0.000038
         0.000026    0.000038    0.000039

siesta: Pressure (static):          0.83864258  kBar

siesta: Stress tensor (total) (eV/Ang**3):
         0.000896    0.000187    0.000028
         0.000187   -0.002507    0.000038
         0.000028    0.000038    0.000036

siesta: Pressure (total):          0.84069534  kBar

siesta: Temp_ion =      34.915 K

* Maximum dynamic memory allocated =     5 MB

siesta:                 ==============================
                            Begin MD step =    999
                        ==============================

outcell: Unit cell vectors (Ang):
       10.000000    0.000000    0.000000
        0.000000   10.000000    0.000000
        0.000000    0.000000   10.000000

outcell: Cell vector modules (Ang)   :   10.000000   10.000000   10.000000
outcell: Cell angles (23,13,12) (deg):     90.0000     90.0000     90.0000
outcell: Cell volume (Ang**3)        :   1000.0000

siesta: iscf   Eharris(eV)      E_KS(eV)   FreeEng(eV)   dDmax  Ef(eV)
siesta:    1    -1012.5672    -1012.4752    -1012.4752  0.0209 -4.0573
siesta:    2    -1012.5683    -1012.5573    -1012.5573  0.0283 -4.2232
siesta:    3    -1012.5622    -1012.5203    -1012.5203  0.0053 -4.1306
siesta:    4    -1012.5618    -1012.5451    -1012.5451  0.0023 -4.1451
siesta:    5    -1012.5617    -1012.5583    -1012.5583  0.0009 -4.1411
siesta:    6    -1012.5617    -1012.5604    -1012.5604  0.0007 -4.1412
siesta:    7    -1012.5617    -1012.5620    -1012.5620  0.0001 -4.1427
siesta:    8    -1012.5617    -1012.5620    -1012.5620  0.0000 -4.1432

siesta: E_KS(eV) =            -1012.5619

siesta: Atomic forces (eV/Ang):
----------------------------------------
   Tot    0.139935   -0.031517   -0.003806
----------------------------------------
   Max    0.816193
   Res    0.221449    sqrt( Sum f_i^2 / 3N )
----------------------------------------
   Max    0.816193    constrained

Stress-tensor-Voigt (kbar):        3.34       -2.69        0.05        0.39        0.03       -0.07
Target enthalpy (eV/cell)    -1012.5619

siesta: Stress tensor (static) (eV/Ang**3):
         0.002082    0.000244   -0.000044
         0.000244   -0.001680    0.000017
        -0.000044    0.000017    0.000033

siesta: Pressure (static):         -0.23179189  kBar

siesta: Stress tensor (total) (eV/Ang**3):
         0.002082    0.000244   -0.000044
         0.000245   -0.001681    0.000018
        -0.000044    0.000018    0.000031

siesta: Pressure (total):         -0.23060320  kBar

siesta: Temp_ion =      51.774 K

* Maximum dynamic memory allocated =     5 MB

siesta:                 ==============================
                            Begin MD step =   1000
                        ==============================

outcell: Unit cell vectors (Ang):
       10.000000    0.000000    0.000000
        0.000000   10.000000    0.000000
        0.000000    0.000000   10.000000

outcell: Cell vector modules (Ang)   :   10.000000   10.000000   10.000000
outcell: Cell angles (23,13,12) (deg):     90.0000     90.0000     90.0000
outcell: Cell volume (Ang**3)        :   1000.0000

siesta: iscf   Eharris(eV)      E_KS(eV)   FreeEng(eV)   dDmax  Ef(eV)
siesta:    1    -1012.5760    -1012.5955    -1012.5955  0.0174 -4.1961
siesta:    2    -1012.5734    -1012.5709    -1012.5709  0.0143 -4.1657
siesta:    3    -1012.5725    -1012.5809    -1012.5809  0.0038 -4.1795
siesta:    4    -1012.5723    -1012.5763    -1012.5763  0.0013 -4.1795
siesta:    5    -1012.5723    -1012.5728    -1012.5728  0.0004 -4.1807
siesta:    6    -1012.5723    -1012.5725    -1012.5725  0.0002 -4.1802
siesta:    7    -1012.5723    -1012.5723    -1012.5723  0.0001 -4.1796

siesta: E_KS(eV) =            -1012.5723

siesta: Atomic forces (eV/Ang):
----------------------------------------
   Tot    0.147779   -0.016128   -0.003467
----------------------------------------
   Max    0.682779
   Res    0.251712    sqrt( Sum f_i^2 / 3N )
----------------------------------------
   Max    0.682779    constrained

Stress-tensor-Voigt (kbar):        2.76        0.67        0.04        0.01       -0.08       -0.02
Target enthalpy (eV/cell)    -1012.5723

siesta: Stress tensor (static) (eV/Ang**3):
         0.001723    0.000005   -0.000013
         0.000005    0.000418   -0.000050
        -0.000013   -0.000050    0.000027

siesta: Pressure (static):         -1.15747812  kBar

siesta: Stress tensor (total) (eV/Ang**3):
         0.001721    0.000007   -0.000014
         0.000007    0.000416   -0.000049
        -0.000014   -0.000049    0.000026

siesta: Pressure (total):         -1.15520889  kBar

siesta: Temp_ion =      59.463 K

* Maximum dynamic memory allocated =     5 MB

siesta: Program's energy decomposition (eV):
siesta: Eions   =      2015.050817
siesta: Ena     =       651.431565
siesta: Ekin    =       679.095643
siesta: Enl     =       -35.442273
siesta: DEna    =        22.089020
siesta: DUscf   =         0.798242
siesta: DUext   =         0.000000
siesta: Exc     =      -315.493688
siesta: eta*DQ  =         0.000000
siesta: Emadel  =         0.000000
siesta: Ekinion =         0.084545
siesta: Eharris =     -1012.487765
siesta: Etot    =     -1012.487762
siesta: FreeEng =     -1012.487762

siesta: Final energy (eV):
siesta:       Kinetic =     679.095643
siesta:       Hartree =    1666.920300
siesta:    Ext. field =       0.000000
siesta:   Exch.-corr. =    -315.493688
siesta:  Ion-electron =   -3992.324935
siesta:       Ion-ion =     949.230373
siesta:       Ekinion =       0.084545
siesta:         Total =   -1012.487762

siesta: Atomic forces (eV/Ang):
siesta:      1    0.093606    0.449477   -0.140791
siesta:      2   -0.081319    0.139374    0.007842
siesta:      3   -0.445681    0.264698   -0.379901
siesta:      4   -0.275481   -0.626325    0.329243
siesta:      5    0.682779    0.030492   -0.020321
siesta:      6    0.398903   -0.165789   -0.000170
siesta:      7   -0.021482   -0.344924    0.147623
siesta:      8   -0.168287   -0.155239    0.078847
siesta:      9    0.129645   -0.035514    0.039722
siesta:     10   -0.080202    0.333674    0.013151
siesta:     11    0.068391   -0.013811   -0.041941
siesta:     12   -0.153092    0.107758   -0.036770
siesta: ----------------------------------------
siesta:    Tot    0.147779   -0.016128   -0.003467

siesta: Stress tensor (static) (eV/Ang**3):
siesta:     0.001723    0.000005   -0.000013
siesta:     0.000005    0.000418   -0.000050
siesta:    -0.000013   -0.000050    0.000027

siesta: Cell volume =       1000.000000 Ang**3

siesta: Pressure (static):
siesta:                Solid            Molecule  Units
siesta:          -0.00000787          0.00000109  Ry/Bohr**3
siesta:          -0.00072243          0.00010040  eV/Ang**3
siesta:          -1.15747812          0.16086532  kBar

siesta: Electric dipole (a.u.)  =    0.001923    0.000000   -0.036660
siesta: Electric dipole (Debye) =    0.004888    0.000000   -0.093181

* Maximum dynamic memory allocated : Node    0 =     5 MB
* Maximum dynamic memory allocated : Node    1 =     5 MB
* Maximum dynamic memory allocated : Node    2 =     5 MB
* Maximum dynamic memory allocated : Node    3 =     5 MB

* Maximum memory occured during redistribXZ                   

timer: CPU execution times:
timer:  Routine       Calls   Time/call    Tot.time        %
timer:  siesta            1    3557.162    3557.162   100.00
timer:  Setup             1       1.324       1.324     0.04
timer:  bands             1       0.001       0.001     0.00
timer:  writewave         1       0.003       0.003     0.00
timer:  KSV_init          1       0.000       0.000     0.00
timer:  IterMD         1000       3.556    3555.745    99.96
timer:  hsparse        1001       0.002       1.831     0.05
timer:  overfsm        2000       0.001       1.936     0.05
timer:  IterSCF        8163       0.425    3472.417    97.62
timer:  kinefsm        2000       0.001       1.617     0.05
timer:  nlefsm         2000       0.013      26.362     0.74
timer:  DHSCF          8163       0.390    3185.424    89.55
timer:  DHSCF1            1       0.075       0.075     0.00
timer:  DHSCF2         1000       0.394     394.441    11.09
timer:  REORD         67304       0.001      86.745     2.44
timer:  POISON         9163       0.169    1548.116    43.52
timer:  DHSCF3         8163       0.310    2531.799    71.17
timer:  rhoofd         8163       0.027     217.288     6.11
timer:  cellXC         8163       0.057     464.246    13.05
timer:  vmat           8163       0.022     177.559     4.99
timer:  diagon         7163       0.017     122.510     3.44
timer:  rdiag          7163       0.017     120.066     3.38
timer:  rdiag1         7163       0.001       6.715     0.19
timer:  rdiag2         7163       0.001       9.738     0.27
timer:  rdiag3         7163       0.012      88.807     2.50
timer:  rdiag4         7163       0.001       4.676     0.13
timer:  DHSCF4         1000       0.241     241.175     6.78
timer:  dfscf          1000       0.173     173.214     4.87
timer:  optical           1       0.003       0.003     0.00
  

elaps: ELAPSED times:
elaps:  Routine       Calls   Time/call    Tot.time        %
elaps:  siesta            1     960.854     960.854   100.00
elaps:  Setup             1       0.376       0.376     0.04
elaps:  bands             1       0.000       0.000     0.00
elaps:  writewave         1       0.002       0.002     0.00
elaps:  KSV_init          1       0.000       0.000     0.00
elaps:  IterMD         1000       0.960     960.447    99.96
elaps:  hsparse        1001       0.000       0.403     0.04
elaps:  overfsm        2000       0.000       0.520     0.05
elaps:  IterSCF        8163       0.113     925.138    96.28
elaps:  kinefsm        2000       0.000       0.453     0.05
elaps:  nlefsm         2000       0.004       7.313     0.76
elaps:  DHSCF          8163       0.103     843.153    87.75
elaps:  DHSCF1            1       0.019       0.019     0.00
elaps:  DHSCF2         1000       0.105     105.217    10.95
elaps:  REORD         67304       0.000      24.826     2.58
elaps:  POISON         9163       0.046     423.049    44.03
elaps:  DHSCF3         8163       0.084     681.830    70.96
elaps:  rhoofd         8163       0.005      38.773     4.04
elaps:  cellXC         8163       0.015     121.474    12.64
elaps:  vmat           8163       0.006      46.053     4.79
elaps:  diagon         7163       0.005      32.895     3.42
elaps:  rdiag          7163       0.004      32.224     3.35
elaps:  rdiag1         7163       0.000       1.756     0.18
elaps:  rdiag2         7163       0.000       2.431     0.25
elaps:  rdiag3         7163       0.003      24.051     2.50
elaps:  rdiag4         7163       0.000       1.281     0.13
elaps:  DHSCF4         1000       0.051      51.197     5.33
elaps:  dfscf          1000       0.038      37.795     3.93
elaps:  optical           1       0.000       0.000     0.00
  
>> End of run:  13-JUN-2007  16:29:24
